# E (eV)   ldos(E)   pdos(E)    pdos(E)    pdos(E)   
 -21.338  0.000E+00  0.000E+00  0.000E+00  0.000E+00
 -21.337  0.421E-02  0.416E-02  0.253E-04  0.253E-04
 -21.336  0.363E-02  0.354E-02  0.430E-04  0.430E-04
 -21.335  0.403E-02  0.389E-02  0.708E-04  0.708E-04
 -21.334  0.444E-02  0.423E-02  0.103E-03  0.103E-03
 -21.333  0.480E-02  0.452E-02  0.137E-03  0.137E-03
 -21.332  0.438E-02  0.409E-02  0.149E-03  0.149E-03
 -21.331  0.422E-02  0.389E-02  0.165E-03  0.165E-03
 -21.330  0.440E-02  0.401E-02  0.194E-03  0.194E-03
 -21.329  0.458E-02  0.413E-02  0.225E-03  0.225E-03
 -21.328  0.476E-02  0.425E-02  0.257E-03  0.257E-03
 -21.327  0.495E-02  0.437E-02  0.290E-03  0.290E-03
 -21.326  0.467E-02  0.407E-02  0.295E-03  0.295E-03
 -21.325  0.468E-02  0.405E-02  0.317E-03  0.317E-03
 -21.324  0.470E-02  0.402E-02  0.339E-03  0.339E-03
 -21.323  0.473E-02  0.401E-02  0.362E-03  0.362E-03
 -21.322  0.485E-02  0.407E-02  0.391E-03  0.391E-03
 -21.321  0.497E-02  0.413E-02  0.422E-03  0.422E-03
 -21.320  0.510E-02  0.419E-02  0.452E-03  0.452E-03
 -21.319  0.522E-02  0.425E-02  0.484E-03  0.484E-03
 -21.318  0.527E-02  0.425E-02  0.509E-03  0.509E-03
 -21.317  0.512E-02  0.409E-02  0.513E-03  0.513E-03
 -21.316  0.510E-02  0.404E-02  0.530E-03  0.530E-03
 -21.315  0.516E-02  0.405E-02  0.555E-03  0.555E-03
 -21.314  0.522E-02  0.406E-02  0.580E-03  0.580E-03
 -21.313  0.528E-02  0.408E-02  0.605E-03  0.605E-03
 -21.312  0.535E-02  0.409E-02  0.629E-03  0.629E-03
 -21.311  0.543E-02  0.412E-02  0.657E-03  0.657E-03
 -21.310  0.553E-02  0.416E-02  0.687E-03  0.687E-03
 -21.309  0.563E-02  0.420E-02  0.717E-03  0.717E-03
 -21.308  0.573E-02  0.424E-02  0.747E-03  0.747E-03
 -21.307  0.583E-02  0.428E-02  0.777E-03  0.777E-03
 -21.306  0.570E-02  0.415E-02  0.775E-03  0.775E-03
 -21.305  0.570E-02  0.412E-02  0.792E-03  0.792E-03
 -21.304  0.571E-02  0.410E-02  0.808E-03  0.808E-03
 -21.303  0.575E-02  0.410E-02  0.829E-03  0.829E-03
 -21.302  0.583E-02  0.412E-02  0.853E-03  0.853E-03
 -21.301  0.590E-02  0.414E-02  0.878E-03  0.878E-03
 -21.300  0.597E-02  0.417E-02  0.902E-03  0.902E-03
 -21.299  0.605E-02  0.419E-02  0.926E-03  0.926E-03
 -21.298  0.612E-02  0.422E-02  0.950E-03  0.950E-03
 -21.297  0.620E-02  0.425E-02  0.974E-03  0.974E-03
 -21.296  0.631E-02  0.430E-02  0.100E-02  0.100E-02
 -21.295  0.642E-02  0.436E-02  0.103E-02  0.103E-02
 -21.294  0.654E-02  0.443E-02  0.106E-02  0.106E-02
 -21.293  0.656E-02  0.443E-02  0.107E-02  0.107E-02
 -21.292  0.655E-02  0.441E-02  0.107E-02  0.107E-02
 -21.291  0.669E-02  0.451E-02  0.109E-02  0.109E-02
 -21.290  0.684E-02  0.463E-02  0.111E-02  0.111E-02
 -21.289  0.700E-02  0.475E-02  0.112E-02  0.112E-02
 -21.288  0.716E-02  0.489E-02  0.113E-02  0.113E-02
 -21.287  0.116E-01  0.790E-02  0.183E-02  0.183E-02
 -21.286  0.106E-01  0.736E-02  0.161E-02  0.161E-02
 -21.285  0.955E-02  0.674E-02  0.140E-02  0.140E-02
 -21.284  0.849E-02  0.605E-02  0.122E-02  0.122E-02
 -21.283  0.739E-02  0.529E-02  0.105E-02  0.105E-02
 -21.282  0.626E-02  0.445E-02  0.906E-03  0.906E-03
 -21.281  0.518E-02  0.361E-02  0.785E-03  0.785E-03
 -21.280  0.493E-02  0.344E-02  0.744E-03  0.744E-03
 -21.279  0.466E-02  0.325E-02  0.705E-03  0.705E-03
 -21.278  0.439E-02  0.306E-02  0.669E-03  0.669E-03
 -21.277  0.145E-01  0.995E-02  0.225E-02  0.225E-02
 -21.276  0.256E-02  0.166E-02  0.449E-03  0.449E-03
 -21.275  0.286E-02  0.179E-02  0.537E-03  0.537E-03
 -21.274  0.317E-02  0.192E-02  0.624E-03  0.624E-03
 -21.273  0.347E-02  0.205E-02  0.711E-03  0.711E-03
 -21.272  0.377E-02  0.218E-02  0.797E-03  0.797E-03
 -21.271  0.496E-02  0.257E-02  0.120E-02  0.120E-02
 -21.270  0.681E-02  0.323E-02  0.179E-02  0.179E-02
 -21.269  0.872E-02  0.403E-02  0.235E-02  0.235E-02
 -21.268  0.107E-01  0.495E-02  0.287E-02  0.287E-02
 -21.267  0.627E-02  0.302E-02  0.162E-02  0.162E-02
 -21.266  0.631E-02  0.300E-02  0.165E-02  0.165E-02
 -21.265  0.634E-02  0.295E-02  0.169E-02  0.169E-02
 -21.264  0.637E-02  0.290E-02  0.173E-02  0.173E-02
 -21.263  0.639E-02  0.283E-02  0.178E-02  0.178E-02
 -21.262  0.640E-02  0.274E-02  0.183E-02  0.183E-02
 -21.261  0.661E-02  0.285E-02  0.188E-02  0.188E-02
 -21.260  0.938E-02  0.337E-02  0.301E-02  0.301E-02
 -21.259  0.130E-01  0.486E-02  0.408E-02  0.408E-02
 -21.258  0.172E-01  0.732E-02  0.492E-02  0.492E-02
 -21.257  0.707E-02  0.320E-02  0.193E-02  0.193E-02
 -21.256  0.701E-02  0.320E-02  0.191E-02  0.191E-02
 -21.255  0.696E-02  0.319E-02  0.188E-02  0.188E-02
 -21.254  0.693E-02  0.318E-02  0.188E-02  0.188E-02
 -21.253  0.699E-02  0.317E-02  0.191E-02  0.191E-02
 -21.252  0.706E-02  0.316E-02  0.195E-02  0.195E-02
 -21.251  0.714E-02  0.316E-02  0.199E-02  0.199E-02
 -21.250  0.723E-02  0.317E-02  0.203E-02  0.203E-02
 -21.249  0.732E-02  0.318E-02  0.207E-02  0.207E-02
 -21.248  0.741E-02  0.319E-02  0.211E-02  0.211E-02
 -21.247  0.750E-02  0.321E-02  0.215E-02  0.215E-02
 -21.246  0.759E-02  0.323E-02  0.218E-02  0.218E-02
 -21.245  0.769E-02  0.325E-02  0.222E-02  0.222E-02
 -21.244  0.779E-02  0.327E-02  0.226E-02  0.226E-02
 -21.243  0.789E-02  0.331E-02  0.229E-02  0.229E-02
 -21.242  0.800E-02  0.334E-02  0.233E-02  0.233E-02
 -21.241  0.811E-02  0.338E-02  0.237E-02  0.237E-02
 -21.240  0.822E-02  0.342E-02  0.240E-02  0.240E-02
 -21.239  0.833E-02  0.346E-02  0.243E-02  0.243E-02
 -21.238  0.845E-02  0.351E-02  0.247E-02  0.247E-02
 -21.237  0.109E-01  0.436E-02  0.329E-02  0.329E-02
 -21.236  0.105E-01  0.413E-02  0.320E-02  0.320E-02
 -21.235  0.102E-01  0.397E-02  0.313E-02  0.313E-02
 -21.234  0.993E-02  0.384E-02  0.305E-02  0.305E-02
 -21.233  0.967E-02  0.374E-02  0.296E-02  0.296E-02
 -21.232  0.943E-02  0.368E-02  0.287E-02  0.287E-02
 -21.231  0.951E-02  0.369E-02  0.291E-02  0.291E-02
 -21.230  0.969E-02  0.372E-02  0.299E-02  0.299E-02
 -21.229  0.986E-02  0.374E-02  0.306E-02  0.306E-02
 -21.228  0.100E-01  0.374E-02  0.314E-02  0.314E-02
 -21.227  0.817E-02  0.295E-02  0.261E-02  0.261E-02
 -21.226  0.826E-02  0.297E-02  0.265E-02  0.265E-02
 -21.225  0.835E-02  0.299E-02  0.268E-02  0.268E-02
 -21.224  0.845E-02  0.302E-02  0.272E-02  0.272E-02
 -21.223  0.855E-02  0.304E-02  0.275E-02  0.275E-02
 -21.222  0.865E-02  0.308E-02  0.279E-02  0.279E-02
 -21.221  0.875E-02  0.311E-02  0.282E-02  0.282E-02
 -21.220  0.886E-02  0.314E-02  0.286E-02  0.286E-02
 -21.219  0.896E-02  0.318E-02  0.289E-02  0.289E-02
 -21.218  0.907E-02  0.322E-02  0.293E-02  0.293E-02
 -21.217  0.917E-02  0.325E-02  0.296E-02  0.296E-02
 -21.216  0.926E-02  0.328E-02  0.299E-02  0.299E-02
 -21.215  0.935E-02  0.331E-02  0.302E-02  0.302E-02
 -21.214  0.941E-02  0.334E-02  0.304E-02  0.304E-02
 -21.213  0.941E-02  0.334E-02  0.304E-02  0.304E-02
 -21.212  0.942E-02  0.334E-02  0.304E-02  0.304E-02
 -21.211  0.944E-02  0.334E-02  0.305E-02  0.305E-02
 -21.210  0.945E-02  0.334E-02  0.305E-02  0.305E-02
 -21.209  0.946E-02  0.334E-02  0.306E-02  0.306E-02
 -21.208  0.947E-02  0.333E-02  0.307E-02  0.307E-02
 -21.207  0.108E-01  0.371E-02  0.354E-02  0.354E-02
 -21.206  0.107E-01  0.363E-02  0.352E-02  0.352E-02
 -21.205  0.106E-01  0.356E-02  0.350E-02  0.350E-02
 -21.204  0.105E-01  0.350E-02  0.349E-02  0.349E-02
 -21.203  0.104E-01  0.344E-02  0.347E-02  0.347E-02
 -21.202  0.103E-01  0.339E-02  0.346E-02  0.346E-02
 -21.201  0.103E-01  0.337E-02  0.347E-02  0.347E-02
 -21.200  0.103E-01  0.336E-02  0.348E-02  0.348E-02
 -21.199  0.103E-01  0.335E-02  0.349E-02  0.349E-02
 -21.198  0.103E-01  0.334E-02  0.350E-02  0.350E-02
 -21.197  0.104E-01  0.334E-02  0.352E-02  0.352E-02
 -21.196  0.105E-01  0.335E-02  0.357E-02  0.357E-02
 -21.195  0.106E-01  0.336E-02  0.361E-02  0.361E-02
 -21.194  0.107E-01  0.337E-02  0.366E-02  0.366E-02
 -21.193  0.108E-01  0.338E-02  0.371E-02  0.371E-02
 -21.192  0.109E-01  0.338E-02  0.375E-02  0.375E-02
 -21.191  0.110E-01  0.339E-02  0.380E-02  0.380E-02
 -21.190  0.111E-01  0.339E-02  0.385E-02  0.385E-02
 -21.189  0.112E-01  0.339E-02  0.389E-02  0.389E-02
 -21.188  0.997E-02  0.295E-02  0.351E-02  0.351E-02
 -21.187  0.101E-01  0.295E-02  0.356E-02  0.356E-02
 -21.186  0.102E-01  0.294E-02  0.361E-02  0.361E-02
 -21.185  0.103E-01  0.292E-02  0.368E-02  0.368E-02
 -21.184  0.104E-01  0.290E-02  0.376E-02  0.376E-02
 -21.183  0.106E-01  0.288E-02  0.384E-02  0.384E-02
 -21.182  0.107E-01  0.286E-02  0.393E-02  0.393E-02
 -21.181  0.109E-01  0.284E-02  0.402E-02  0.402E-02
 -21.180  0.111E-01  0.281E-02  0.412E-02  0.412E-02
 -21.179  0.112E-01  0.278E-02  0.422E-02  0.422E-02
 -21.178  0.114E-01  0.275E-02  0.433E-02  0.433E-02
 -21.177  0.116E-01  0.271E-02  0.443E-02  0.443E-02
 -21.176  0.117E-01  0.267E-02  0.454E-02  0.454E-02
 -21.175  0.119E-01  0.262E-02  0.464E-02  0.464E-02
 -21.174  0.121E-01  0.258E-02  0.476E-02  0.476E-02
 -21.173  0.123E-01  0.253E-02  0.487E-02  0.487E-02
 -21.172  0.124E-01  0.247E-02  0.498E-02  0.498E-02
 -21.171  0.126E-01  0.241E-02  0.509E-02  0.509E-02
 -21.170  0.128E-01  0.235E-02  0.520E-02  0.520E-02
 -21.169  0.129E-01  0.228E-02  0.532E-02  0.532E-02
 -21.168  0.140E-01  0.244E-02  0.577E-02  0.577E-02
 -21.167  0.141E-01  0.233E-02  0.588E-02  0.588E-02
 -21.166  0.142E-01  0.223E-02  0.598E-02  0.598E-02
 -21.165  0.143E-01  0.212E-02  0.609E-02  0.609E-02
 -21.164  0.144E-01  0.202E-02  0.619E-02  0.619E-02
 -21.163  0.145E-01  0.191E-02  0.630E-02  0.630E-02
 -21.162  0.146E-01  0.181E-02  0.641E-02  0.641E-02
 -21.161  0.146E-01  0.170E-02  0.646E-02  0.646E-02
 -21.160  0.128E-01  0.160E-02  0.558E-02  0.558E-02
 -21.159  0.118E-01  0.183E-02  0.498E-02  0.498E-02
 -21.158  0.120E-01  0.245E-02  0.475E-02  0.475E-02
 -21.157  0.118E-01  0.269E-02  0.455E-02  0.455E-02
 -21.156  0.116E-01  0.284E-02  0.436E-02  0.436E-02
 -21.155  0.113E-01  0.299E-02  0.416E-02  0.416E-02
 -21.154  0.112E-01  0.314E-02  0.404E-02  0.404E-02
 -21.153  0.113E-01  0.329E-02  0.399E-02  0.399E-02
 -21.152  0.113E-01  0.336E-02  0.395E-02  0.395E-02
 -21.151  0.112E-01  0.342E-02  0.391E-02  0.391E-02
 -21.150  0.112E-01  0.347E-02  0.388E-02  0.388E-02
 -21.149  0.112E-01  0.353E-02  0.384E-02  0.384E-02
 -21.148  0.112E-01  0.358E-02  0.381E-02  0.381E-02
 -21.147  0.112E-01  0.363E-02  0.378E-02  0.378E-02
 -21.146  0.112E-01  0.369E-02  0.376E-02  0.376E-02
 -21.145  0.113E-01  0.374E-02  0.379E-02  0.379E-02
 -21.144  0.114E-01  0.376E-02  0.382E-02  0.382E-02
 -21.143  0.115E-01  0.377E-02  0.385E-02  0.385E-02
 -21.142  0.115E-01  0.378E-02  0.388E-02  0.388E-02
 -21.141  0.116E-01  0.378E-02  0.392E-02  0.392E-02
 -21.140  0.117E-01  0.379E-02  0.395E-02  0.395E-02
 -21.139  0.108E-01  0.352E-02  0.364E-02  0.364E-02
 -21.138  0.109E-01  0.352E-02  0.368E-02  0.368E-02
 -21.137  0.109E-01  0.352E-02  0.372E-02  0.372E-02
 -21.136  0.110E-01  0.352E-02  0.376E-02  0.376E-02
 -21.135  0.111E-01  0.352E-02  0.380E-02  0.380E-02
 -21.134  0.112E-01  0.352E-02  0.386E-02  0.386E-02
 -21.133  0.114E-01  0.351E-02  0.393E-02  0.393E-02
 -21.132  0.115E-01  0.350E-02  0.399E-02  0.399E-02
 -21.131  0.116E-01  0.348E-02  0.405E-02  0.405E-02
 -21.130  0.117E-01  0.346E-02  0.411E-02  0.411E-02
 -21.129  0.117E-01  0.342E-02  0.414E-02  0.414E-02
 -21.128  0.117E-01  0.340E-02  0.417E-02  0.417E-02
 -21.127  0.118E-01  0.338E-02  0.419E-02  0.419E-02
 -21.126  0.118E-01  0.337E-02  0.420E-02  0.420E-02
 -21.125  0.118E-01  0.337E-02  0.421E-02  0.421E-02
 -21.124  0.118E-01  0.338E-02  0.422E-02  0.422E-02
 -21.123  0.118E-01  0.339E-02  0.423E-02  0.423E-02
 -21.122  0.119E-01  0.340E-02  0.423E-02  0.423E-02
 -21.121  0.119E-01  0.341E-02  0.423E-02  0.423E-02
 -21.120  0.136E-01  0.342E-02  0.507E-02  0.507E-02
 -21.119  0.135E-01  0.344E-02  0.504E-02  0.504E-02
 -21.118  0.161E-01  0.538E-02  0.539E-02  0.539E-02
 -21.117  0.159E-01  0.531E-02  0.530E-02  0.530E-02
 -21.116  0.157E-01  0.523E-02  0.521E-02  0.521E-02
 -21.115  0.154E-01  0.513E-02  0.512E-02  0.512E-02
 -21.114  0.150E-01  0.502E-02  0.501E-02  0.501E-02
 -21.113  0.147E-01  0.489E-02  0.490E-02  0.490E-02
 -21.112  0.143E-01  0.474E-02  0.479E-02  0.479E-02
 -21.111  0.139E-01  0.457E-02  0.466E-02  0.466E-02
 -21.110  0.134E-01  0.439E-02  0.453E-02  0.453E-02
 -21.109  0.172E-01  0.523E-02  0.596E-02  0.596E-02
 -21.108  0.161E-01  0.489E-02  0.558E-02  0.558E-02
 -21.107  0.149E-01  0.453E-02  0.520E-02  0.520E-02
 -21.106  0.138E-01  0.414E-02  0.481E-02  0.481E-02
 -21.105  0.128E-01  0.373E-02  0.452E-02  0.452E-02
 -21.104  0.119E-01  0.330E-02  0.429E-02  0.429E-02
 -21.103  0.112E-01  0.308E-02  0.407E-02  0.407E-02
 -21.102  0.106E-01  0.287E-02  0.385E-02  0.385E-02
 -21.101  0.991E-02  0.265E-02  0.363E-02  0.363E-02
 -21.100  0.926E-02  0.243E-02  0.342E-02  0.342E-02
 -21.099  0.861E-02  0.220E-02  0.320E-02  0.320E-02
 -21.098  0.799E-02  0.198E-02  0.301E-02  0.301E-02
 -21.097  0.809E-02  0.196E-02  0.307E-02  0.307E-02
 -21.096  0.819E-02  0.194E-02  0.312E-02  0.312E-02
 -21.095  0.825E-02  0.192E-02  0.316E-02  0.316E-02
 -21.094  0.860E-02  0.194E-02  0.333E-02  0.333E-02
 -21.093  0.927E-02  0.201E-02  0.363E-02  0.363E-02
 -21.092  0.994E-02  0.208E-02  0.393E-02  0.393E-02
 -21.091  0.106E-01  0.214E-02  0.424E-02  0.424E-02
 -21.090  0.113E-01  0.221E-02  0.454E-02  0.454E-02
 -21.089  0.179E-01  0.367E-02  0.711E-02  0.711E-02
 -21.088  0.172E-01  0.348E-02  0.687E-02  0.687E-02
 -21.087  0.166E-01  0.326E-02  0.666E-02  0.666E-02
 -21.086  0.160E-01  0.302E-02  0.648E-02  0.648E-02
 -21.085  0.154E-01  0.275E-02  0.633E-02  0.633E-02
 -21.084  0.149E-01  0.246E-02  0.621E-02  0.621E-02
 -21.083  0.147E-01  0.225E-02  0.622E-02  0.622E-02
 -21.082  0.154E-01  0.233E-02  0.654E-02  0.654E-02
 -21.081  0.161E-01  0.240E-02  0.687E-02  0.687E-02
 -21.080  0.117E-01  0.249E-02  0.462E-02  0.462E-02
 -21.079  0.112E-01  0.212E-02  0.453E-02  0.453E-02
 -21.078  0.121E-01  0.225E-02  0.491E-02  0.491E-02
 -21.077  0.130E-01  0.240E-02  0.528E-02  0.528E-02
 -21.076  0.138E-01  0.255E-02  0.564E-02  0.564E-02
 -21.075  0.147E-01  0.271E-02  0.599E-02  0.599E-02
 -21.074  0.156E-01  0.287E-02  0.634E-02  0.634E-02
 -21.073  0.164E-01  0.305E-02  0.668E-02  0.668E-02
 -21.072  0.172E-01  0.323E-02  0.701E-02  0.701E-02
 -21.071  0.181E-01  0.342E-02  0.733E-02  0.733E-02
 -21.070  0.189E-01  0.361E-02  0.764E-02  0.764E-02
 -21.069  0.132E-01  0.252E-02  0.533E-02  0.533E-02
 -21.068  0.132E-01  0.254E-02  0.535E-02  0.535E-02
 -21.067  0.133E-01  0.255E-02  0.537E-02  0.537E-02
 -21.066  0.134E-01  0.257E-02  0.540E-02  0.540E-02
 -21.065  0.134E-01  0.259E-02  0.542E-02  0.542E-02
 -21.064  0.135E-01  0.260E-02  0.544E-02  0.544E-02
 -21.063  0.136E-01  0.262E-02  0.547E-02  0.547E-02
 -21.062  0.136E-01  0.263E-02  0.549E-02  0.549E-02
 -21.061  0.137E-01  0.265E-02  0.552E-02  0.552E-02
 -21.060  0.356E-01  0.738E-02  0.141E-01  0.141E-01
 -21.059  0.189E-01  0.397E-02  0.746E-02  0.746E-02
 -21.058  0.131E-01  0.241E-02  0.536E-02  0.536E-02
 -21.057  0.132E-01  0.241E-02  0.538E-02  0.538E-02
 -21.056  0.132E-01  0.241E-02  0.540E-02  0.540E-02
 -21.055  0.136E-01  0.245E-02  0.556E-02  0.556E-02
 -21.054  0.161E-01  0.277E-02  0.665E-02  0.665E-02
 -21.053  0.185E-01  0.314E-02  0.768E-02  0.768E-02
 -21.052  0.209E-01  0.355E-02  0.866E-02  0.866E-02
 -21.051  0.232E-01  0.401E-02  0.958E-02  0.958E-02
 -21.050  0.148E-01  0.255E-02  0.613E-02  0.613E-02
 -21.049  0.148E-01  0.254E-02  0.613E-02  0.613E-02
 -21.048  0.148E-01  0.253E-02  0.614E-02  0.614E-02
 -21.047  0.148E-01  0.252E-02  0.614E-02  0.614E-02
 -21.046  0.148E-01  0.251E-02  0.615E-02  0.615E-02
 -21.045  0.148E-01  0.250E-02  0.615E-02  0.615E-02
 -21.044  0.148E-01  0.249E-02  0.615E-02  0.615E-02
 -21.043  0.148E-01  0.248E-02  0.615E-02  0.615E-02
 -21.042  0.148E-01  0.247E-02  0.615E-02  0.615E-02
 -21.041  0.148E-01  0.246E-02  0.614E-02  0.614E-02
 -21.040  0.147E-01  0.246E-02  0.614E-02  0.614E-02
 -21.039  0.148E-01  0.245E-02  0.615E-02  0.615E-02
 -21.038  0.148E-01  0.246E-02  0.616E-02  0.616E-02
 -21.037  0.148E-01  0.246E-02  0.618E-02  0.618E-02
 -21.036  0.148E-01  0.247E-02  0.619E-02  0.619E-02
 -21.035  0.149E-01  0.248E-02  0.620E-02  0.620E-02
 -21.034  0.149E-01  0.249E-02  0.621E-02  0.621E-02
 -21.033  0.149E-01  0.250E-02  0.622E-02  0.622E-02
 -21.032  0.150E-01  0.251E-02  0.622E-02  0.622E-02
 -21.031  0.150E-01  0.252E-02  0.623E-02  0.623E-02
 -21.030  0.150E-01  0.254E-02  0.624E-02  0.624E-02
 -21.029  0.150E-01  0.255E-02  0.625E-02  0.625E-02
 -21.028  0.151E-01  0.257E-02  0.625E-02  0.625E-02
 -21.027  0.151E-01  0.259E-02  0.626E-02  0.626E-02
 -21.026  0.151E-01  0.261E-02  0.627E-02  0.627E-02
 -21.025  0.152E-01  0.262E-02  0.627E-02  0.627E-02
 -21.024  0.152E-01  0.264E-02  0.630E-02  0.630E-02
 -21.023  0.199E-01  0.581E-02  0.707E-02  0.707E-02
 -21.022  0.296E-01  0.829E-02  0.107E-01  0.107E-01
 -21.021  0.428E-01  0.830E-02  0.172E-01  0.172E-01
 -21.020  0.154E-01  0.265E-02  0.637E-02  0.637E-02
 -21.019  0.154E-01  0.264E-02  0.635E-02  0.635E-02
 -21.018  0.154E-01  0.263E-02  0.638E-02  0.638E-02
 -21.017  0.154E-01  0.263E-02  0.640E-02  0.640E-02
 -21.016  0.155E-01  0.262E-02  0.643E-02  0.643E-02
 -21.015  0.155E-01  0.261E-02  0.646E-02  0.646E-02
 -21.014  0.156E-01  0.261E-02  0.649E-02  0.649E-02
 -21.013  0.156E-01  0.260E-02  0.651E-02  0.651E-02
 -21.012  0.157E-01  0.260E-02  0.654E-02  0.654E-02
 -21.011  0.151E-01  0.248E-02  0.630E-02  0.630E-02
 -21.010  0.151E-01  0.248E-02  0.633E-02  0.633E-02
 -21.009  0.152E-01  0.249E-02  0.636E-02  0.636E-02
 -21.008  0.153E-01  0.249E-02  0.640E-02  0.640E-02
 -21.007  0.154E-01  0.249E-02  0.643E-02  0.643E-02
 -21.006  0.154E-01  0.249E-02  0.647E-02  0.647E-02
 -21.005  0.155E-01  0.250E-02  0.650E-02  0.650E-02
 -21.004  0.156E-01  0.250E-02  0.653E-02  0.653E-02
 -21.003  0.156E-01  0.251E-02  0.656E-02  0.656E-02
 -21.002  0.157E-01  0.251E-02  0.660E-02  0.660E-02
 -21.001  0.158E-01  0.252E-02  0.663E-02  0.663E-02
 -21.000  0.158E-01  0.253E-02  0.666E-02  0.666E-02
 -20.999  0.159E-01  0.253E-02  0.669E-02  0.669E-02
 -20.998  0.160E-01  0.254E-02  0.672E-02  0.672E-02
 -20.997  0.161E-01  0.255E-02  0.675E-02  0.675E-02
 -20.996  0.161E-01  0.256E-02  0.679E-02  0.679E-02
 -20.995  0.162E-01  0.257E-02  0.682E-02  0.682E-02
 -20.994  0.163E-01  0.257E-02  0.685E-02  0.685E-02
 -20.993  0.163E-01  0.258E-02  0.688E-02  0.688E-02
 -20.992  0.164E-01  0.259E-02  0.691E-02  0.691E-02
 -20.991  0.165E-01  0.259E-02  0.693E-02  0.693E-02
 -20.990  0.169E-01  0.266E-02  0.713E-02  0.713E-02
 -20.989  0.170E-01  0.266E-02  0.714E-02  0.714E-02
 -20.988  0.170E-01  0.266E-02  0.716E-02  0.716E-02
 -20.987  0.170E-01  0.267E-02  0.717E-02  0.717E-02
 -20.986  0.170E-01  0.267E-02  0.719E-02  0.719E-02
 -20.985  0.171E-01  0.268E-02  0.720E-02  0.720E-02
 -20.984  0.171E-01  0.268E-02  0.721E-02  0.721E-02
 -20.983  0.171E-01  0.269E-02  0.723E-02  0.723E-02
 -20.982  0.172E-01  0.269E-02  0.724E-02  0.724E-02
 -20.981  0.250E-01  0.378E-02  0.106E-01  0.106E-01
 -20.980  0.235E-01  0.348E-02  0.100E-01  0.100E-01
 -20.979  0.225E-01  0.331E-02  0.959E-02  0.959E-02
 -20.978  0.215E-01  0.317E-02  0.914E-02  0.914E-02
 -20.977  0.204E-01  0.306E-02  0.867E-02  0.867E-02
 -20.976  0.198E-01  0.302E-02  0.840E-02  0.840E-02
 -20.975  0.203E-01  0.307E-02  0.863E-02  0.863E-02
 -20.974  0.208E-01  0.312E-02  0.886E-02  0.886E-02
 -20.973  0.214E-01  0.316E-02  0.910E-02  0.910E-02
 -20.972  0.219E-01  0.319E-02  0.934E-02  0.934E-02
 -20.971  0.172E-01  0.248E-02  0.738E-02  0.738E-02
 -20.970  0.173E-01  0.247E-02  0.740E-02  0.740E-02
 -20.969  0.173E-01  0.246E-02  0.742E-02  0.742E-02
 -20.968  0.173E-01  0.245E-02  0.744E-02  0.744E-02
 -20.967  0.174E-01  0.244E-02  0.746E-02  0.746E-02
 -20.966  0.174E-01  0.243E-02  0.749E-02  0.749E-02
 -20.965  0.175E-01  0.243E-02  0.752E-02  0.752E-02
 -20.964  0.175E-01  0.242E-02  0.755E-02  0.755E-02
 -20.963  0.176E-01  0.242E-02  0.759E-02  0.759E-02
 -20.962  0.177E-01  0.242E-02  0.763E-02  0.763E-02
 -20.961  0.178E-01  0.242E-02  0.767E-02  0.767E-02
 -20.960  0.180E-01  0.246E-02  0.777E-02  0.777E-02
 -20.959  0.182E-01  0.250E-02  0.787E-02  0.787E-02
 -20.958  0.185E-01  0.253E-02  0.797E-02  0.797E-02
 -20.957  0.187E-01  0.256E-02  0.807E-02  0.807E-02
 -20.956  0.189E-01  0.259E-02  0.817E-02  0.817E-02
 -20.955  0.192E-01  0.261E-02  0.827E-02  0.827E-02
 -20.954  0.194E-01  0.264E-02  0.837E-02  0.837E-02
 -20.953  0.196E-01  0.266E-02  0.847E-02  0.847E-02
 -20.952  0.198E-01  0.268E-02  0.857E-02  0.857E-02
 -20.951  0.200E-01  0.270E-02  0.867E-02  0.867E-02
 -20.950  0.202E-01  0.271E-02  0.877E-02  0.877E-02
 -20.949  0.205E-01  0.273E-02  0.887E-02  0.887E-02
 -20.948  0.212E-01  0.280E-02  0.917E-02  0.917E-02
 -20.947  0.220E-01  0.291E-02  0.956E-02  0.956E-02
 -20.946  0.229E-01  0.301E-02  0.995E-02  0.995E-02
 -20.945  0.238E-01  0.311E-02  0.103E-01  0.103E-01
 -20.944  0.247E-01  0.321E-02  0.107E-01  0.107E-01
 -20.943  0.256E-01  0.331E-02  0.111E-01  0.111E-01
 -20.942  0.265E-01  0.341E-02  0.115E-01  0.115E-01
 -20.941  0.274E-01  0.351E-02  0.119E-01  0.119E-01
 -20.940  0.283E-01  0.360E-02  0.123E-01  0.123E-01
 -20.939  0.292E-01  0.370E-02  0.127E-01  0.127E-01
 -20.938  0.384E-01  0.482E-02  0.168E-01  0.168E-01
 -20.937  0.471E-01  0.590E-02  0.206E-01  0.206E-01
 -20.936  0.415E-01  0.523E-02  0.181E-01  0.181E-01
 -20.935  0.358E-01  0.453E-02  0.156E-01  0.156E-01
 -20.934  0.299E-01  0.380E-02  0.131E-01  0.131E-01
 -20.933  0.239E-01  0.306E-02  0.104E-01  0.104E-01
 -20.932  0.146E-01  0.178E-02  0.640E-02  0.640E-02
 -20.931  0.136E-01  0.172E-02  0.593E-02  0.593E-02
 -20.930  0.125E-01  0.163E-02  0.543E-02  0.543E-02
 -20.929  0.113E-01  0.151E-02  0.490E-02  0.490E-02
 -20.928  0.101E-01  0.137E-02  0.435E-02  0.435E-02
 -20.927  0.880E-02  0.120E-02  0.380E-02  0.380E-02
 -20.926  0.747E-02  0.100E-02  0.324E-02  0.324E-02
 -20.925  0.606E-02  0.776E-03  0.264E-02  0.264E-02
 -20.924  0.465E-02  0.537E-03  0.206E-02  0.206E-02
 -20.923  0.471E-02  0.538E-03  0.208E-02  0.208E-02
 -20.922  0.556E-02  0.738E-03  0.241E-02  0.241E-02
 -20.921  0.647E-02  0.935E-03  0.277E-02  0.277E-02
 -20.920  0.738E-02  0.111E-02  0.313E-02  0.313E-02
 -20.919  0.826E-02  0.127E-02  0.350E-02  0.350E-02
 -20.918  0.913E-02  0.141E-02  0.386E-02  0.386E-02
 -20.917  0.998E-02  0.153E-02  0.423E-02  0.423E-02
 -20.916  0.108E-01  0.164E-02  0.460E-02  0.460E-02
 -20.915  0.117E-01  0.173E-02  0.498E-02  0.498E-02
 -20.914  0.125E-01  0.179E-02  0.535E-02  0.535E-02
 -20.913  0.133E-01  0.184E-02  0.572E-02  0.572E-02
 -20.912  0.107E-01  0.136E-02  0.468E-02  0.468E-02
 -20.911  0.118E-01  0.148E-02  0.515E-02  0.515E-02
 -20.910  0.129E-01  0.159E-02  0.564E-02  0.564E-02
 -20.909  0.140E-01  0.171E-02  0.614E-02  0.614E-02
 -20.908  0.151E-01  0.183E-02  0.665E-02  0.665E-02
 -20.907  0.163E-01  0.195E-02  0.718E-02  0.718E-02
 -20.906  0.175E-01  0.207E-02  0.771E-02  0.771E-02
 -20.905  0.187E-01  0.218E-02  0.827E-02  0.827E-02
 -20.904  0.200E-01  0.230E-02  0.883E-02  0.883E-02
 -20.903  0.212E-01  0.242E-02  0.940E-02  0.940E-02
 -20.902  0.225E-01  0.254E-02  0.999E-02  0.999E-02
 -20.901  0.238E-01  0.266E-02  0.106E-01  0.106E-01
 -20.900  0.252E-01  0.278E-02  0.112E-01  0.112E-01
 -20.899  0.266E-01  0.290E-02  0.118E-01  0.118E-01
 -20.898  0.280E-01  0.302E-02  0.125E-01  0.125E-01
 -20.897  0.268E-01  0.280E-02  0.120E-01  0.120E-01
 -20.896  0.254E-01  0.257E-02  0.114E-01  0.114E-01
 -20.895  0.240E-01  0.237E-02  0.108E-01  0.108E-01
 -20.894  0.224E-01  0.217E-02  0.101E-01  0.101E-01
 -20.893  0.208E-01  0.200E-02  0.939E-02  0.939E-02
 -20.892  0.242E-01  0.257E-02  0.108E-01  0.108E-01
 -20.891  0.234E-01  0.258E-02  0.104E-01  0.104E-01
 -20.890  0.228E-01  0.264E-02  0.101E-01  0.101E-01
 -20.889  0.223E-01  0.272E-02  0.980E-02  0.980E-02
 -20.888  0.220E-01  0.286E-02  0.957E-02  0.957E-02
 -20.887  0.223E-01  0.310E-02  0.958E-02  0.958E-02
 -20.886  0.229E-01  0.337E-02  0.976E-02  0.976E-02
 -20.885  0.239E-01  0.367E-02  0.101E-01  0.101E-01
 -20.884  0.252E-01  0.399E-02  0.106E-01  0.106E-01
 -20.883  0.274E-01  0.434E-02  0.115E-01  0.115E-01
 -20.882  0.273E-01  0.426E-02  0.115E-01  0.115E-01
 -20.881  0.262E-01  0.400E-02  0.111E-01  0.111E-01
 -20.880  0.251E-01  0.376E-02  0.106E-01  0.106E-01
 -20.879  0.240E-01  0.354E-02  0.102E-01  0.102E-01
 -20.878  0.229E-01  0.333E-02  0.981E-02  0.981E-02
 -20.877  0.219E-01  0.314E-02  0.940E-02  0.940E-02
 -20.876  0.210E-01  0.296E-02  0.900E-02  0.900E-02
 -20.875  0.200E-01  0.279E-02  0.860E-02  0.860E-02
 -20.874  0.191E-01  0.263E-02  0.821E-02  0.821E-02
 -20.873  0.210E-01  0.282E-02  0.911E-02  0.911E-02
 -20.872  0.209E-01  0.276E-02  0.906E-02  0.906E-02
 -20.871  0.207E-01  0.270E-02  0.901E-02  0.901E-02
 -20.870  0.206E-01  0.264E-02  0.896E-02  0.896E-02
 -20.869  0.204E-01  0.258E-02  0.891E-02  0.891E-02
 -20.868  0.202E-01  0.252E-02  0.885E-02  0.885E-02
 -20.867  0.200E-01  0.247E-02  0.879E-02  0.879E-02
 -20.866  0.199E-01  0.241E-02  0.872E-02  0.872E-02
 -20.865  0.197E-01  0.236E-02  0.866E-02  0.866E-02
 -20.864  0.195E-01  0.230E-02  0.859E-02  0.859E-02
 -20.863  0.193E-01  0.225E-02  0.853E-02  0.853E-02
 -20.862  0.194E-01  0.224E-02  0.858E-02  0.858E-02
 -20.861  0.196E-01  0.225E-02  0.867E-02  0.867E-02
 -20.860  0.198E-01  0.225E-02  0.876E-02  0.876E-02
 -20.859  0.200E-01  0.226E-02  0.885E-02  0.885E-02
 -20.858  0.160E-01  0.189E-02  0.705E-02  0.705E-02
 -20.857  0.163E-01  0.192E-02  0.718E-02  0.718E-02
 -20.856  0.166E-01  0.195E-02  0.730E-02  0.730E-02
 -20.855  0.168E-01  0.198E-02  0.743E-02  0.743E-02
 -20.854  0.171E-01  0.201E-02  0.756E-02  0.756E-02
 -20.853  0.174E-01  0.204E-02  0.770E-02  0.770E-02
 -20.852  0.177E-01  0.207E-02  0.783E-02  0.783E-02
 -20.851  0.180E-01  0.210E-02  0.797E-02  0.797E-02
 -20.850  0.183E-01  0.213E-02  0.811E-02  0.811E-02
 -20.849  0.187E-01  0.216E-02  0.826E-02  0.826E-02
 -20.848  0.190E-01  0.219E-02  0.840E-02  0.840E-02
 -20.847  0.193E-01  0.222E-02  0.855E-02  0.855E-02
 -20.846  0.197E-01  0.225E-02  0.870E-02  0.870E-02
 -20.845  0.200E-01  0.228E-02  0.885E-02  0.885E-02
 -20.844  0.174E-01  0.198E-02  0.773E-02  0.773E-02
 -20.843  0.177E-01  0.200E-02  0.786E-02  0.786E-02
 -20.842  0.180E-01  0.202E-02  0.798E-02  0.798E-02
 -20.841  0.183E-01  0.205E-02  0.810E-02  0.810E-02
 -20.840  0.185E-01  0.208E-02  0.823E-02  0.823E-02
 -20.839  0.188E-01  0.211E-02  0.835E-02  0.835E-02
 -20.838  0.190E-01  0.212E-02  0.845E-02  0.845E-02
 -20.837  0.189E-01  0.209E-02  0.842E-02  0.842E-02
 -20.836  0.189E-01  0.206E-02  0.840E-02  0.840E-02
 -20.835  0.188E-01  0.204E-02  0.837E-02  0.837E-02
 -20.834  0.187E-01  0.201E-02  0.835E-02  0.835E-02
 -20.833  0.234E-01  0.256E-02  0.104E-01  0.104E-01
 -20.832  0.246E-01  0.268E-02  0.109E-01  0.109E-01
 -20.831  0.258E-01  0.281E-02  0.115E-01  0.115E-01
 -20.830  0.258E-01  0.281E-02  0.115E-01  0.115E-01
 -20.829  0.253E-01  0.274E-02  0.113E-01  0.113E-01
 -20.828  0.248E-01  0.268E-02  0.111E-01  0.111E-01
 -20.827  0.243E-01  0.261E-02  0.108E-01  0.108E-01
 -20.826  0.237E-01  0.254E-02  0.106E-01  0.106E-01
 -20.825  0.232E-01  0.248E-02  0.104E-01  0.104E-01
 -20.824  0.226E-01  0.241E-02  0.101E-01  0.101E-01
 -20.823  0.225E-01  0.243E-02  0.100E-01  0.100E-01
 -20.822  0.219E-01  0.240E-02  0.976E-02  0.976E-02
 -20.821  0.213E-01  0.237E-02  0.947E-02  0.947E-02
 -20.820  0.207E-01  0.234E-02  0.919E-02  0.919E-02
 -20.819  0.203E-01  0.232E-02  0.897E-02  0.897E-02
 -20.818  0.203E-01  0.236E-02  0.898E-02  0.898E-02
 -20.817  0.204E-01  0.240E-02  0.900E-02  0.900E-02
 -20.816  0.205E-01  0.243E-02  0.901E-02  0.901E-02
 -20.815  0.205E-01  0.246E-02  0.903E-02  0.903E-02
 -20.814  0.206E-01  0.250E-02  0.905E-02  0.905E-02
 -20.813  0.207E-01  0.252E-02  0.907E-02  0.907E-02
 -20.812  0.207E-01  0.255E-02  0.909E-02  0.909E-02
 -20.811  0.208E-01  0.258E-02  0.911E-02  0.911E-02
 -20.810  0.209E-01  0.260E-02  0.913E-02  0.913E-02
 -20.809  0.209E-01  0.262E-02  0.915E-02  0.915E-02
 -20.808  0.210E-01  0.264E-02  0.917E-02  0.917E-02
 -20.807  0.211E-01  0.267E-02  0.924E-02  0.924E-02
 -20.806  0.214E-01  0.270E-02  0.933E-02  0.933E-02
 -20.805  0.216E-01  0.273E-02  0.942E-02  0.942E-02
 -20.804  0.513E-01  0.620E-02  0.226E-01  0.226E-01
 -20.803  0.294E-01  0.356E-02  0.129E-01  0.129E-01
 -20.802  0.223E-01  0.262E-02  0.983E-02  0.983E-02
 -20.801  0.219E-01  0.252E-02  0.967E-02  0.967E-02
 -20.800  0.214E-01  0.242E-02  0.950E-02  0.950E-02
 -20.799  0.211E-01  0.234E-02  0.939E-02  0.939E-02
 -20.798  0.209E-01  0.227E-02  0.933E-02  0.933E-02
 -20.797  0.207E-01  0.221E-02  0.926E-02  0.926E-02
 -20.796  0.205E-01  0.216E-02  0.918E-02  0.918E-02
 -20.795  0.203E-01  0.211E-02  0.908E-02  0.908E-02
 -20.794  0.199E-01  0.206E-02  0.894E-02  0.894E-02
 -20.793  0.196E-01  0.201E-02  0.882E-02  0.882E-02
 -20.792  0.194E-01  0.197E-02  0.872E-02  0.872E-02
 -20.791  0.192E-01  0.194E-02  0.862E-02  0.862E-02
 -20.790  0.189E-01  0.191E-02  0.850E-02  0.850E-02
 -20.789  0.186E-01  0.188E-02  0.837E-02  0.837E-02
 -20.788  0.184E-01  0.187E-02  0.826E-02  0.826E-02
 -20.787  0.187E-01  0.191E-02  0.842E-02  0.842E-02
 -20.786  0.191E-01  0.194E-02  0.859E-02  0.859E-02
 -20.785  0.195E-01  0.197E-02  0.875E-02  0.875E-02
 -20.784  0.200E-01  0.200E-02  0.900E-02  0.900E-02
 -20.783  0.206E-01  0.204E-02  0.927E-02  0.927E-02
 -20.782  0.212E-01  0.208E-02  0.955E-02  0.955E-02
 -20.781  0.219E-01  0.213E-02  0.989E-02  0.989E-02
 -20.780  0.226E-01  0.218E-02  0.102E-01  0.102E-01
 -20.779  0.234E-01  0.223E-02  0.106E-01  0.106E-01
 -20.778  0.241E-01  0.229E-02  0.109E-01  0.109E-01
 -20.777  0.249E-01  0.235E-02  0.113E-01  0.113E-01
 -20.776  0.257E-01  0.241E-02  0.116E-01  0.116E-01
 -20.775  0.334E-01  0.318E-02  0.151E-01  0.151E-01
 -20.774  0.287E-01  0.271E-02  0.130E-01  0.130E-01