# E (eV)   ldos(E)   pdos(E)   
 -21.543  0.174E-05  0.174E-05
 -21.542  0.191E-05  0.191E-05
 -21.541  0.209E-05  0.209E-05
 -21.540  0.229E-05  0.229E-05
 -21.539  0.251E-05  0.251E-05
 -21.538  0.275E-05  0.275E-05
 -21.537  0.301E-05  0.301E-05
 -21.536  0.329E-05  0.329E-05
 -21.535  0.360E-05  0.360E-05
 -21.534  0.393E-05  0.393E-05
 -21.533  0.430E-05  0.430E-05
 -21.532  0.470E-05  0.470E-05
 -21.531  0.513E-05  0.513E-05
 -21.530  0.560E-05  0.560E-05
 -21.529  0.611E-05  0.611E-05
 -21.528  0.666E-05  0.666E-05
 -21.527  0.726E-05  0.726E-05
 -21.526  0.791E-05  0.791E-05
 -21.525  0.862E-05  0.862E-05
 -21.524  0.938E-05  0.938E-05
 -21.523  0.102E-04  0.102E-04
 -21.522  0.111E-04  0.111E-04
 -21.521  0.121E-04  0.121E-04
 -21.520  0.131E-04  0.131E-04
 -21.519  0.143E-04  0.143E-04
 -21.518  0.155E-04  0.155E-04
 -21.517  0.168E-04  0.168E-04
 -21.516  0.183E-04  0.183E-04
 -21.515  0.198E-04  0.198E-04
 -21.514  0.215E-04  0.215E-04
 -21.513  0.233E-04  0.233E-04
 -21.512  0.252E-04  0.252E-04
 -21.511  0.273E-04  0.273E-04
 -21.510  0.296E-04  0.296E-04
 -21.509  0.320E-04  0.320E-04
 -21.508  0.346E-04  0.346E-04
 -21.507  0.374E-04  0.374E-04
 -21.506  0.405E-04  0.405E-04
 -21.505  0.437E-04  0.437E-04
 -21.504  0.472E-04  0.472E-04
 -21.503  0.510E-04  0.510E-04
 -21.502  0.550E-04  0.550E-04
 -21.501  0.593E-04  0.593E-04
 -21.500  0.639E-04  0.639E-04
 -21.499  0.689E-04  0.689E-04
 -21.498  0.742E-04  0.742E-04
 -21.497  0.800E-04  0.800E-04
 -21.496  0.861E-04  0.861E-04
 -21.495  0.926E-04  0.926E-04
 -21.494  0.996E-04  0.996E-04
 -21.493  0.107E-03  0.107E-03
 -21.492  0.115E-03  0.115E-03
 -21.491  0.124E-03  0.124E-03
 -21.490  0.133E-03  0.133E-03
 -21.489  0.143E-03  0.143E-03
 -21.488  0.153E-03  0.153E-03
 -21.487  0.164E-03  0.164E-03
 -21.486  0.176E-03  0.176E-03
 -21.485  0.188E-03  0.188E-03
 -21.484  0.202E-03  0.202E-03
 -21.483  0.216E-03  0.216E-03
 -21.482  0.231E-03  0.231E-03
 -21.481  0.248E-03  0.248E-03
 -21.480  0.265E-03  0.265E-03
 -21.479  0.283E-03  0.283E-03
 -21.478  0.303E-03  0.303E-03
 -21.477  0.323E-03  0.323E-03
 -21.476  0.345E-03  0.345E-03
 -21.475  0.368E-03  0.368E-03
 -21.474  0.393E-03  0.393E-03
 -21.473  0.419E-03  0.419E-03
 -21.472  0.447E-03  0.447E-03
 -21.471  0.476E-03  0.476E-03
 -21.470  0.507E-03  0.507E-03
 -21.469  0.540E-03  0.540E-03
 -21.468  0.575E-03  0.575E-03
 -21.467  0.612E-03  0.612E-03
 -21.466  0.651E-03  0.651E-03
 -21.465  0.692E-03  0.692E-03
 -21.464  0.735E-03  0.735E-03
 -21.463  0.781E-03  0.781E-03
 -21.462  0.829E-03  0.829E-03
 -21.461  0.880E-03  0.880E-03
 -21.460  0.934E-03  0.934E-03
 -21.459  0.991E-03  0.991E-03
 -21.458  0.105E-02  0.105E-02
 -21.457  0.111E-02  0.111E-02
 -21.456  0.118E-02  0.118E-02
 -21.455  0.125E-02  0.125E-02
 -21.454  0.132E-02  0.132E-02
 -21.453  0.140E-02  0.140E-02
 -21.452  0.148E-02  0.148E-02
 -21.451  0.156E-02  0.156E-02
 -21.450  0.165E-02  0.165E-02
 -21.449  0.175E-02  0.175E-02
 -21.448  0.185E-02  0.185E-02
 -21.447  0.195E-02  0.195E-02
 -21.446  0.206E-02  0.206E-02
 -21.445  0.217E-02  0.217E-02
 -21.444  0.229E-02  0.229E-02
 -21.443  0.241E-02  0.241E-02
 -21.442  0.254E-02  0.254E-02
 -21.441  0.267E-02  0.267E-02
 -21.440  0.282E-02  0.282E-02
 -21.439  0.296E-02  0.296E-02
 -21.438  0.312E-02  0.312E-02
 -21.437  0.328E-02  0.328E-02
 -21.436  0.345E-02  0.345E-02
 -21.435  0.362E-02  0.362E-02
 -21.434  0.380E-02  0.380E-02
 -21.433  0.399E-02  0.399E-02
 -21.432  0.419E-02  0.419E-02
 -21.431  0.440E-02  0.440E-02
 -21.430  0.461E-02  0.461E-02
 -21.429  0.484E-02  0.484E-02
 -21.428  0.507E-02  0.507E-02
 -21.427  0.531E-02  0.531E-02
 -21.426  0.556E-02  0.556E-02
 -21.425  0.582E-02  0.582E-02
 -21.424  0.609E-02  0.609E-02
 -21.423  0.637E-02  0.637E-02
 -21.422  0.666E-02  0.666E-02
 -21.421  0.696E-02  0.696E-02
 -21.420  0.728E-02  0.728E-02
 -21.419  0.760E-02  0.760E-02
 -21.418  0.793E-02  0.793E-02
 -21.417  0.828E-02  0.828E-02
 -21.416  0.864E-02  0.864E-02
 -21.415  0.901E-02  0.901E-02
 -21.414  0.939E-02  0.939E-02
 -21.413  0.979E-02  0.979E-02
 -21.412  0.102E-01  0.102E-01
 -21.411  0.106E-01  0.106E-01
 -21.410  0.111E-01  0.111E-01
 -21.409  0.115E-01  0.115E-01
 -21.408  0.120E-01  0.120E-01
 -21.407  0.124E-01  0.124E-01
 -21.406  0.129E-01  0.129E-01
 -21.405  0.134E-01  0.134E-01
 -21.404  0.140E-01  0.140E-01
 -21.403  0.145E-01  0.145E-01
 -21.402  0.150E-01  0.150E-01
 -21.401  0.156E-01  0.156E-01
 -21.400  0.162E-01  0.162E-01
 -21.399  0.168E-01  0.168E-01
 -21.398  0.174E-01  0.174E-01
 -21.397  0.180E-01  0.180E-01
 -21.396  0.187E-01  0.187E-01
 -21.395  0.193E-01  0.193E-01
 -21.394  0.200E-01  0.200E-01
 -21.393  0.207E-01  0.207E-01
 -21.392  0.214E-01  0.214E-01
 -21.391  0.221E-01  0.221E-01
 -21.390  0.229E-01  0.229E-01
 -21.389  0.236E-01  0.236E-01
 -21.388  0.244E-01  0.244E-01
 -21.387  0.252E-01  0.252E-01
 -21.386  0.260E-01  0.260E-01
 -21.385  0.268E-01  0.268E-01
 -21.384  0.276E-01  0.276E-01
 -21.383  0.285E-01  0.285E-01
 -21.382  0.294E-01  0.294E-01
 -21.381  0.303E-01  0.303E-01
 -21.380  0.312E-01  0.312E-01
 -21.379  0.321E-01  0.321E-01
 -21.378  0.330E-01  0.330E-01
 -21.377  0.340E-01  0.340E-01
 -21.376  0.350E-01  0.350E-01
 -21.375  0.359E-01  0.359E-01
 -21.374  0.369E-01  0.369E-01
 -21.373  0.379E-01  0.379E-01
 -21.372  0.390E-01  0.390E-01
 -21.371  0.400E-01  0.400E-01
 -21.370  0.411E-01  0.411E-01
 -21.369  0.421E-01  0.421E-01
 -21.368  0.432E-01  0.432E-01
 -21.367  0.443E-01  0.443E-01
 -21.366  0.454E-01  0.454E-01
 -21.365  0.466E-01  0.466E-01
 -21.364  0.477E-01  0.477E-01
 -21.363  0.489E-01  0.489E-01
 -21.362  0.500E-01  0.500E-01
 -21.361  0.512E-01  0.512E-01
 -21.360  0.524E-01  0.524E-01
 -21.359  0.536E-01  0.536E-01
 -21.358  0.548E-01  0.548E-01
 -21.357  0.560E-01  0.560E-01
 -21.356  0.572E-01  0.572E-01
 -21.355  0.584E-01  0.584E-01
 -21.354  0.597E-01  0.597E-01
 -21.353  0.609E-01  0.609E-01
 -21.352  0.622E-01  0.622E-01
 -21.351  0.634E-01  0.634E-01
 -21.350  0.647E-01  0.647E-01
 -21.349  0.659E-01  0.659E-01
 -21.348  0.672E-01  0.672E-01
 -21.347  0.685E-01  0.685E-01
 -21.346  0.698E-01  0.698E-01
 -21.345  0.711E-01  0.711E-01
 -21.344  0.723E-01  0.723E-01
 -21.343  0.736E-01  0.736E-01
 -21.342  0.749E-01  0.749E-01
 -21.341  0.762E-01  0.762E-01
 -21.340  0.775E-01  0.775E-01
 -21.339  0.788E-01  0.788E-01
 -21.338  0.801E-01  0.801E-01
 -21.337  0.813E-01  0.813E-01
 -21.336  0.826E-01  0.826E-01
 -21.335  0.839E-01  0.839E-01
 -21.334  0.852E-01  0.852E-01
 -21.333  0.864E-01  0.864E-01
 -21.332  0.877E-01  0.877E-01
 -21.331  0.890E-01  0.890E-01
 -21.330  0.902E-01  0.902E-01
 -21.329  0.915E-01  0.915E-01
 -21.328  0.927E-01  0.927E-01
 -21.327  0.939E-01  0.939E-01
 -21.326  0.952E-01  0.952E-01
 -21.325  0.964E-01  0.964E-01
 -21.324  0.976E-01  0.976E-01
 -21.323  0.988E-01  0.988E-01
 -21.322  0.999E-01  0.999E-01
 -21.321  0.101E+00  0.101E+00
 -21.320  0.102E+00  0.102E+00
 -21.319  0.103E+00  0.103E+00
 -21.318  0.105E+00  0.105E+00
 -21.317  0.106E+00  0.106E+00
 -21.316  0.107E+00  0.107E+00
 -21.315  0.108E+00  0.108E+00
 -21.314  0.109E+00  0.109E+00
 -21.313  0.110E+00  0.110E+00
 -21.312  0.111E+00  0.111E+00
 -21.311  0.112E+00  0.112E+00
 -21.310  0.113E+00  0.113E+00
 -21.309  0.114E+00  0.114E+00
 -21.308  0.115E+00  0.115E+00
 -21.307  0.116E+00  0.116E+00
 -21.306  0.117E+00  0.117E+00
 -21.305  0.118E+00  0.118E+00
 -21.304  0.119E+00  0.119E+00
 -21.303  0.120E+00  0.120E+00
 -21.302  0.121E+00  0.121E+00
 -21.301  0.121E+00  0.121E+00
 -21.300  0.122E+00  0.122E+00
 -21.299  0.123E+00  0.123E+00
 -21.298  0.124E+00  0.124E+00
 -21.297  0.125E+00  0.125E+00
 -21.296  0.125E+00  0.125E+00
 -21.295  0.126E+00  0.126E+00
 -21.294  0.127E+00  0.127E+00
 -21.293  0.128E+00  0.128E+00
 -21.292  0.128E+00  0.128E+00
 -21.291  0.129E+00  0.129E+00
 -21.290  0.130E+00  0.130E+00
 -21.289  0.130E+00  0.130E+00
 -21.288  0.131E+00  0.131E+00
 -21.287  0.132E+00  0.132E+00
 -21.286  0.132E+00  0.132E+00
 -21.285  0.133E+00  0.133E+00
 -21.284  0.133E+00  0.133E+00
 -21.283  0.134E+00  0.134E+00
 -21.282  0.134E+00  0.134E+00
 -21.281  0.135E+00  0.135E+00
 -21.280  0.135E+00  0.135E+00
 -21.279  0.136E+00  0.136E+00
 -21.278  0.136E+00  0.136E+00
 -21.277  0.136E+00  0.136E+00
 -21.276  0.137E+00  0.137E+00
 -21.275  0.137E+00  0.137E+00
 -21.274  0.138E+00  0.138E+00
 -21.273  0.138E+00  0.138E+00
 -21.272  0.138E+00  0.138E+00
 -21.271  0.139E+00  0.139E+00
 -21.270  0.139E+00  0.139E+00
 -21.269  0.139E+00  0.139E+00
 -21.268  0.139E+00  0.139E+00
 -21.267  0.140E+00  0.140E+00
 -21.266  0.140E+00  0.140E+00
 -21.265  0.140E+00  0.140E+00
 -21.264  0.140E+00  0.140E+00
 -21.263  0.141E+00  0.141E+00
 -21.262  0.141E+00  0.141E+00
 -21.261  0.141E+00  0.141E+00
 -21.260  0.141E+00  0.141E+00
 -21.259  0.141E+00  0.141E+00
 -21.258  0.141E+00  0.141E+00
 -21.257  0.142E+00  0.142E+00
 -21.256  0.142E+00  0.142E+00
 -21.255  0.142E+00  0.142E+00
 -21.254  0.142E+00  0.142E+00
 -21.253  0.142E+00  0.142E+00
 -21.252  0.142E+00  0.142E+00
 -21.251  0.142E+00  0.142E+00
 -21.250  0.142E+00  0.142E+00
 -21.249  0.142E+00  0.142E+00
 -21.248  0.142E+00  0.142E+00
 -21.247  0.142E+00  0.142E+00
 -21.246  0.142E+00  0.142E+00
 -21.245  0.142E+00  0.142E+00
 -21.244  0.142E+00  0.142E+00
 -21.243  0.142E+00  0.142E+00
 -21.242  0.142E+00  0.142E+00
 -21.241  0.142E+00  0.142E+00
 -21.240  0.142E+00  0.142E+00
 -21.239  0.142E+00  0.142E+00
 -21.238  0.142E+00  0.142E+00
 -21.237  0.142E+00  0.142E+00
 -21.236  0.142E+00  0.142E+00
 -21.235  0.142E+00  0.142E+00
 -21.234  0.142E+00  0.142E+00
 -21.233  0.142E+00  0.142E+00
 -21.232  0.142E+00  0.142E+00
 -21.231  0.142E+00  0.142E+00
 -21.230  0.142E+00  0.142E+00
 -21.229  0.142E+00  0.142E+00
 -21.228  0.142E+00  0.142E+00
 -21.227  0.142E+00  0.142E+00
 -21.226  0.142E+00  0.142E+00
 -21.225  0.142E+00  0.142E+00
 -21.224  0.142E+00  0.142E+00
 -21.223  0.141E+00  0.141E+00
 -21.222  0.141E+00  0.141E+00
 -21.221  0.141E+00  0.141E+00
 -21.220  0.141E+00  0.141E+00
 -21.219  0.141E+00  0.141E+00
 -21.218  0.141E+00  0.141E+00
 -21.217  0.141E+00  0.141E+00
 -21.216  0.141E+00  0.141E+00
 -21.215  0.141E+00  0.141E+00
 -21.214  0.141E+00  0.141E+00
 -21.213  0.141E+00  0.141E+00
 -21.212  0.141E+00  0.141E+00
 -21.211  0.141E+00  0.141E+00
 -21.210  0.140E+00  0.140E+00
 -21.209  0.140E+00  0.140E+00
 -21.208  0.140E+00  0.140E+00
 -21.207  0.140E+00  0.140E+00
 -21.206  0.140E+00  0.140E+00
 -21.205  0.140E+00  0.140E+00
 -21.204  0.140E+00  0.140E+00
 -21.203  0.140E+00  0.140E+00
 -21.202  0.140E+00  0.140E+00
 -21.201  0.140E+00  0.140E+00
 -21.200  0.140E+00  0.140E+00
 -21.199  0.140E+00  0.140E+00
 -21.198  0.140E+00  0.140E+00
 -21.197  0.139E+00  0.139E+00
 -21.196  0.139E+00  0.139E+00
 -21.195  0.139E+00  0.139E+00
 -21.194  0.139E+00  0.139E+00
 -21.193  0.139E+00  0.139E+00
 -21.192  0.139E+00  0.139E+00
 -21.191  0.139E+00  0.139E+00
 -21.190  0.139E+00  0.139E+00
 -21.189  0.139E+00  0.139E+00
 -21.188  0.139E+00  0.139E+00
 -21.187  0.139E+00  0.139E+00
 -21.186  0.139E+00  0.139E+00
 -21.185  0.139E+00  0.139E+00
 -21.184  0.139E+00  0.139E+00
 -21.183  0.139E+00  0.139E+00
 -21.182  0.139E+00  0.139E+00
 -21.181  0.139E+00  0.139E+00
 -21.180  0.139E+00  0.139E+00
 -21.179  0.138E+00  0.138E+00
 -21.178  0.138E+00  0.138E+00
 -21.177  0.138E+00  0.138E+00
 -21.176  0.138E+00  0.138E+00
 -21.175  0.138E+00  0.138E+00
 -21.174  0.138E+00  0.138E+00
 -21.173  0.138E+00  0.138E+00
 -21.172  0.138E+00  0.138E+00
 -21.171  0.138E+00  0.138E+00
 -21.170  0.138E+00  0.138E+00
 -21.169  0.138E+00  0.138E+00
 -21.168  0.138E+00  0.138E+00
 -21.167  0.138E+00  0.138E+00
 -21.166  0.138E+00  0.138E+00
 -21.165  0.138E+00  0.138E+00
 -21.164  0.138E+00  0.138E+00
 -21.163  0.138E+00  0.138E+00
 -21.162  0.138E+00  0.138E+00
 -21.161  0.138E+00  0.138E+00
 -21.160  0.138E+00  0.138E+00
 -21.159  0.138E+00  0.138E+00
 -21.158  0.138E+00  0.138E+00
 -21.157  0.138E+00  0.138E+00
 -21.156  0.138E+00  0.138E+00
 -21.155  0.138E+00  0.138E+00
 -21.154  0.138E+00  0.138E+00
 -21.153  0.138E+00  0.138E+00
 -21.152  0.138E+00  0.138E+00
 -21.151  0.138E+00  0.138E+00
 -21.150  0.138E+00  0.138E+00
 -21.149  0.138E+00  0.138E+00
 -21.148  0.138E+00  0.138E+00
 -21.147  0.138E+00  0.138E+00
 -21.146  0.138E+00  0.138E+00
 -21.145  0.138E+00  0.138E+00
 -21.144  0.138E+00  0.138E+00
 -21.143  0.138E+00  0.138E+00
 -21.142  0.138E+00  0.138E+00
 -21.141  0.138E+00  0.138E+00
 -21.140  0.138E+00  0.138E+00
 -21.139  0.138E+00  0.138E+00
 -21.138  0.138E+00  0.138E+00
 -21.137  0.138E+00  0.138E+00
 -21.136  0.138E+00  0.138E+00
 -21.135  0.138E+00  0.138E+00
 -21.134  0.138E+00  0.138E+00
 -21.133  0.138E+00  0.138E+00
 -21.132  0.138E+00  0.138E+00
 -21.131  0.137E+00  0.137E+00
 -21.130  0.137E+00  0.137E+00
 -21.129  0.137E+00  0.137E+00
 -21.128  0.137E+00  0.137E+00
 -21.127  0.137E+00  0.137E+00
 -21.126  0.137E+00  0.137E+00
 -21.125  0.137E+00  0.137E+00
 -21.124  0.137E+00  0.137E+00
 -21.123  0.137E+00  0.137E+00
 -21.122  0.137E+00  0.137E+00
 -21.121  0.137E+00  0.137E+00
 -21.120  0.137E+00  0.137E+00
 -21.119  0.137E+00  0.137E+00
 -21.118  0.137E+00  0.137E+00
 -21.117  0.137E+00  0.137E+00
 -21.116  0.137E+00  0.137E+00
 -21.115  0.137E+00  0.137E+00
 -21.114  0.137E+00  0.137E+00
 -21.113  0.137E+00  0.137E+00
 -21.112  0.137E+00  0.137E+00
 -21.111  0.137E+00  0.137E+00
 -21.110  0.137E+00  0.137E+00
 -21.109  0.137E+00  0.137E+00
 -21.108  0.137E+00  0.137E+00
 -21.107  0.137E+00  0.137E+00
 -21.106  0.137E+00  0.137E+00
 -21.105  0.137E+00  0.137E+00
 -21.104  0.137E+00  0.137E+00
 -21.103  0.137E+00  0.137E+00
 -21.102  0.137E+00  0.137E+00
 -21.101  0.137E+00  0.137E+00
 -21.100  0.137E+00  0.137E+00
 -21.099  0.137E+00  0.137E+00
 -21.098  0.137E+00  0.137E+00
 -21.097  0.137E+00  0.137E+00
 -21.096  0.137E+00  0.137E+00
 -21.095  0.136E+00  0.136E+00
 -21.094  0.136E+00  0.136E+00
 -21.093  0.136E+00  0.136E+00
 -21.092  0.136E+00  0.136E+00
 -21.091  0.136E+00  0.136E+00
 -21.090  0.136E+00  0.136E+00
 -21.089  0.136E+00  0.136E+00
 -21.088  0.136E+00  0.136E+00
 -21.087  0.136E+00  0.136E+00
 -21.086  0.136E+00  0.136E+00
 -21.085  0.136E+00  0.136E+00
 -21.084  0.136E+00  0.136E+00
 -21.083  0.136E+00  0.136E+00
 -21.082  0.136E+00  0.136E+00
 -21.081  0.136E+00  0.136E+00
 -21.080  0.136E+00  0.136E+00
 -21.079  0.136E+00  0.136E+00
 -21.078  0.136E+00  0.136E+00
 -21.077  0.136E+00  0.136E+00
 -21.076  0.136E+00  0.136E+00
 -21.075  0.135E+00  0.135E+00
 -21.074  0.135E+00  0.135E+00
 -21.073  0.135E+00  0.135E+00
 -21.072  0.135E+00  0.135E+00
 -21.071  0.135E+00  0.135E+00
 -21.070  0.135E+00  0.135E+00
 -21.069  0.135E+00  0.135E+00
 -21.068  0.135E+00  0.135E+00
 -21.067  0.135E+00  0.135E+00
 -21.066  0.135E+00  0.135E+00
 -21.065  0.135E+00  0.135E+00
 -21.064  0.135E+00  0.135E+00
 -21.063  0.135E+00  0.135E+00
 -21.062  0.135E+00  0.135E+00
 -21.061  0.135E+00  0.135E+00
 -21.060  0.135E+00  0.135E+00
 -21.059  0.135E+00  0.135E+00
 -21.058  0.134E+00  0.134E+00
 -21.057  0.134E+00  0.134E+00
 -21.056  0.134E+00  0.134E+00
 -21.055  0.134E+00  0.134E+00
 -21.054  0.134E+00  0.134E+00
 -21.053  0.134E+00  0.134E+00
 -21.052  0.134E+00  0.134E+00
 -21.051  0.134E+00  0.134E+00
 -21.050  0.134E+00  0.134E+00
 -21.049  0.134E+00  0.134E+00
 -21.048  0.134E+00  0.134E+00
 -21.047  0.134E+00  0.134E+00
 -21.046  0.134E+00  0.134E+00
 -21.045  0.134E+00  0.134E+00
 -21.044  0.134E+00  0.134E+00
 -21.043  0.134E+00  0.134E+00
 -21.042  0.133E+00  0.133E+00
 -21.041  0.133E+00  0.133E+00
 -21.040  0.133E+00  0.133E+00
 -21.039  0.133E+00  0.133E+00
 -21.038  0.133E+00  0.133E+00
 -21.037  0.133E+00  0.133E+00
 -21.036  0.133E+00  0.133E+00
 -21.035  0.133E+00  0.133E+00
 -21.034  0.133E+00  0.133E+00
 -21.033  0.133E+00  0.133E+00
 -21.032  0.133E+00  0.133E+00
 -21.031  0.133E+00  0.133E+00
 -21.030  0.133E+00  0.133E+00
 -21.029  0.133E+00  0.133E+00
 -21.028  0.133E+00  0.133E+00
 -21.027  0.133E+00  0.133E+00
 -21.026  0.133E+00  0.133E+00
 -21.025  0.132E+00  0.132E+00
 -21.024  0.132E+00  0.132E+00
 -21.023  0.132E+00  0.132E+00
 -21.022  0.132E+00  0.132E+00
 -21.021  0.132E+00  0.132E+00
 -21.020  0.132E+00  0.132E+00
 -21.019  0.132E+00  0.132E+00
 -21.018  0.132E+00  0.132E+00
 -21.017  0.132E+00  0.132E+00
 -21.016  0.132E+00  0.132E+00
 -21.015  0.132E+00  0.132E+00
 -21.014  0.132E+00  0.132E+00
 -21.013  0.132E+00  0.132E+00
 -21.012  0.132E+00  0.132E+00
 -21.011  0.132E+00  0.132E+00
 -21.010  0.132E+00  0.132E+00
 -21.009  0.132E+00  0.132E+00
 -21.008  0.132E+00  0.132E+00
 -21.007  0.131E+00  0.131E+00
 -21.006  0.131E+00  0.131E+00
 -21.005  0.131E+00  0.131E+00
 -21.004  0.131E+00  0.131E+00
 -21.003  0.131E+00  0.131E+00
 -21.002  0.131E+00  0.131E+00
 -21.001  0.131E+00  0.131E+00
 -21.000  0.131E+00  0.131E+00
 -20.999  0.131E+00  0.131E+00
 -20.998  0.131E+00  0.131E+00
 -20.997  0.131E+00  0.131E+00
 -20.996  0.131E+00  0.131E+00
 -20.995  0.131E+00  0.131E+00
 -20.994  0.131E+00  0.131E+00
 -20.993  0.131E+00  0.131E+00
 -20.992  0.131E+00  0.131E+00
 -20.991  0.131E+00  0.131E+00
 -20.990  0.131E+00  0.131E+00
 -20.989  0.131E+00  0.131E+00
 -20.988  0.131E+00  0.131E+00
 -20.987  0.131E+00  0.131E+00
 -20.986  0.130E+00  0.130E+00
 -20.985  0.130E+00  0.130E+00
 -20.984  0.130E+00  0.130E+00
 -20.983  0.130E+00  0.130E+00
 -20.982  0.130E+00  0.130E+00
 -20.981  0.130E+00  0.130E+00
 -20.980  0.130E+00  0.130E+00
 -20.979  0.130E+00  0.130E+00
 -20.978  0.130E+00  0.130E+00
 -20.977  0.130E+00  0.130E+00
 -20.976  0.130E+00  0.130E+00
 -20.975  0.130E+00  0.130E+00
 -20.974  0.130E+00  0.130E+00
 -20.973  0.130E+00  0.130E+00
 -20.972  0.130E+00  0.130E+00
 -20.971  0.130E+00  0.130E+00
 -20.970  0.130E+00  0.130E+00
 -20.969  0.130E+00  0.130E+00
 -20.968  0.130E+00  0.130E+00
 -20.967  0.130E+00  0.130E+00
 -20.966  0.130E+00  0.130E+00
 -20.965  0.130E+00  0.130E+00
 -20.964  0.130E+00  0.130E+00
 -20.963  0.130E+00  0.130E+00
 -20.962  0.130E+00  0.130E+00
 -20.961  0.129E+00  0.129E+00
 -20.960  0.129E+00  0.129E+00
 -20.959  0.129E+00  0.129E+00
 -20.958  0.129E+00  0.129E+00
 -20.957  0.129E+00  0.129E+00
 -20.956  0.129E+00  0.129E+00
 -20.955  0.129E+00  0.129E+00
 -20.954  0.129E+00  0.129E+00
 -20.953  0.129E+00  0.129E+00
 -20.952  0.129E+00  0.129E+00
 -20.951  0.129E+00  0.129E+00
 -20.950  0.129E+00  0.129E+00
 -20.949  0.129E+00  0.129E+00
 -20.948  0.129E+00  0.129E+00
 -20.947  0.129E+00  0.129E+00
 -20.946  0.129E+00  0.129E+00
 -20.945  0.129E+00  0.129E+00
 -20.944  0.129E+00  0.129E+00
 -20.943  0.129E+00  0.129E+00
 -20.942  0.129E+00  0.129E+00
 -20.941  0.129E+00  0.129E+00
 -20.940  0.129E+00  0.129E+00
 -20.939  0.129E+00  0.129E+00
 -20.938  0.129E+00  0.129E+00
 -20.937  0.129E+00  0.129E+00
 -20.936  0.129E+00  0.129E+00
 -20.935  0.129E+00  0.129E+00
 -20.934  0.129E+00  0.129E+00
 -20.933  0.129E+00  0.129E+00
 -20.932  0.129E+00  0.129E+00
 -20.931  0.129E+00  0.129E+00
 -20.930  0.129E+00  0.129E+00
 -20.929  0.129E+00  0.129E+00
 -20.928  0.129E+00  0.129E+00
 -20.927  0.129E+00  0.129E+00
 -20.926  0.129E+00  0.129E+00
 -20.925  0.129E+00  0.129E+00
 -20.924  0.129E+00  0.129E+00
 -20.923  0.129E+00  0.129E+00
 -20.922  0.129E+00  0.129E+00
 -20.921  0.129E+00  0.129E+00
 -20.920  0.129E+00  0.129E+00
 -20.919  0.129E+00  0.129E+00
 -20.918  0.129E+00  0.129E+00
 -20.917  0.129E+00  0.129E+00
 -20.916  0.129E+00  0.129E+00
 -20.915  0.129E+00  0.129E+00
 -20.914  0.129E+00  0.129E+00
 -20.913  0.129E+00  0.129E+00
 -20.912  0.129E+00  0.129E+00
 -20.911  0.129E+00  0.129E+00
 -20.910  0.129E+00  0.129E+00
 -20.909  0.129E+00  0.129E+00
 -20.908  0.129E+00  0.129E+00
 -20.907  0.129E+00  0.129E+00
 -20.906  0.129E+00  0.129E+00
 -20.905  0.129E+00  0.129E+00
 -20.904  0.129E+00  0.129E+00
 -20.903  0.129E+00  0.129E+00
 -20.902  0.129E+00  0.129E+00
 -20.901  0.129E+00  0.129E+00
 -20.900  0.129E+00  0.129E+00
 -20.899  0.129E+00  0.129E+00
 -20.898  0.129E+00  0.129E+00
 -20.897  0.129E+00  0.129E+00
 -20.896  0.129E+00  0.129E+00
 -20.895  0.129E+00  0.129E+00
 -20.894  0.129E+00  0.129E+00
 -20.893  0.129E+00  0.129E+00
 -20.892  0.129E+00  0.129E+00
 -20.891  0.129E+00  0.129E+00
 -20.890  0.129E+00  0.129E+00
 -20.889  0.129E+00  0.129E+00
 -20.888  0.129E+00  0.129E+00
 -20.887  0.129E+00  0.129E+00
 -20.886  0.129E+00  0.129E+00
 -20.885  0.129E+00  0.129E+00
 -20.884  0.129E+00  0.129E+00
 -20.883  0.129E+00  0.129E+00
 -20.882  0.129E+00  0.129E+00
 -20.881  0.129E+00  0.129E+00
 -20.880  0.129E+00  0.129E+00
 -20.879  0.129E+00  0.129E+00
 -20.878  0.129E+00  0.129E+00
 -20.877  0.128E+00  0.128E+00
 -20.876  0.128E+00  0.128E+00
 -20.875  0.128E+00  0.128E+00
 -20.874  0.128E+00  0.128E+00
 -20.873  0.128E+00  0.128E+00
 -20.872  0.128E+00  0.128E+00
 -20.871  0.128E+00  0.128E+00
 -20.870  0.128E+00  0.128E+00
 -20.869  0.128E+00  0.128E+00
 -20.868  0.128E+00  0.128E+00
 -20.867  0.128E+00  0.128E+00
 -20.866  0.128E+00  0.128E+00
 -20.865  0.128E+00  0.128E+00
 -20.864  0.128E+00  0.128E+00
 -20.863  0.128E+00  0.128E+00
 -20.862  0.128E+00  0.128E+00
 -20.861  0.128E+00  0.128E+00
 -20.860  0.128E+00  0.128E+00
 -20.859  0.128E+00  0.128E+00
 -20.858  0.128E+00  0.128E+00
 -20.857  0.128E+00  0.128E+00
 -20.856  0.128E+00  0.128E+00
 -20.855  0.128E+00  0.128E+00
 -20.854  0.128E+00  0.128E+00
 -20.853  0.128E+00  0.128E+00
 -20.852  0.128E+00  0.128E+00
 -20.851  0.128E+00  0.128E+00
 -20.850  0.128E+00  0.128E+00
 -20.849  0.128E+00  0.128E+00
 -20.848  0.128E+00  0.128E+00
 -20.847  0.128E+00  0.128E+00
 -20.846  0.128E+00  0.128E+00
 -20.845  0.128E+00  0.128E+00
 -20.844  0.128E+00  0.128E+00
 -20.843  0.128E+00  0.128E+00
 -20.842  0.128E+00  0.128E+00
 -20.841  0.128E+00  0.128E+00
 -20.840  0.128E+00  0.128E+00
 -20.839  0.128E+00  0.128E+00
 -20.838  0.128E+00  0.128E+00
 -20.837  0.128E+00  0.128E+00
 -20.836  0.128E+00  0.128E+00
 -20.835  0.128E+00  0.128E+00
 -20.834  0.128E+00  0.128E+00
 -20.833  0.128E+00  0.128E+00
 -20.832  0.128E+00  0.128E+00
 -20.831  0.128E+00  0.128E+00
 -20.830  0.128E+00  0.128E+00
 -20.829  0.128E+00  0.128E+00
 -20.828  0.128E+00  0.128E+00
 -20.827  0.128E+00  0.128E+00
 -20.826  0.128E+00  0.128E+00
 -20.825  0.128E+00  0.128E+00
 -20.824  0.128E+00  0.128E+00
 -20.823  0.128E+00  0.128E+00
 -20.822  0.128E+00  0.128E+00
 -20.821  0.128E+00  0.128E+00
 -20.820  0.128E+00  0.128E+00
 -20.819  0.128E+00  0.128E+00
 -20.818  0.127E+00  0.127E+00
 -20.817  0.127E+00  0.127E+00
 -20.816  0.127E+00  0.127E+00
 -20.815  0.127E+00  0.127E+00
 -20.814  0.127E+00  0.127E+00
 -20.813  0.127E+00  0.127E+00
 -20.812  0.127E+00  0.127E+00
 -20.811  0.127E+00  0.127E+00
 -20.810  0.127E+00  0.127E+00
 -20.809  0.127E+00  0.127E+00
 -20.808  0.127E+00  0.127E+00
 -20.807  0.127E+00  0.127E+00
 -20.806  0.127E+00  0.127E+00
 -20.805  0.127E+00  0.127E+00
 -20.804  0.127E+00  0.127E+00
 -20.803  0.127E+00  0.127E+00
 -20.802  0.127E+00  0.127E+00
 -20.801  0.127E+00  0.127E+00
 -20.800  0.127E+00  0.127E+00
 -20.799  0.127E+00  0.127E+00
 -20.798  0.127E+00  0.127E+00
 -20.797  0.127E+00  0.127E+00
 -20.796  0.127E+00  0.127E+00
 -20.795  0.127E+00  0.127E+00
 -20.794  0.127E+00  0.127E+00
 -20.793  0.127E+00  0.127E+00
 -20.792  0.127E+00  0.127E+00
 -20.791  0.127E+00  0.127E+00
 -20.790  0.127E+00  0.127E+00
 -20.789  0.127E+00  0.127E+00
 -20.788  0.127E+00  0.127E+00
 -20.787  0.127E+00  0.127E+00
 -20.786  0.126E+00  0.126E+00
 -20.785  0.126E+00  0.126E+00
 -20.784  0.126E+00  0.126E+00
 -20.783  0.126E+00  0.126E+00
 -20.782  0.126E+00  0.126E+00
 -20.781  0.126E+00  0.126E+00
 -20.780  0.126E+00  0.126E+00
 -20.779  0.126E+00  0.126E+00
 -20.778  0.126E+00  0.126E+00
 -20.777  0.126E+00  0.126E+00
 -20.776  0.126E+00  0.126E+00
 -20.775  0.126E+00  0.126E+00
 -20.774  0.126E+00  0.126E+00
 -20.773  0.126E+00  0.126E+00
 -20.772  0.126E+00  0.126E+00
 -20.771  0.126E+00  0.126E+00
 -20.770  0.126E+00  0.126E+00
 -20.769  0.126E+00  0.126E+00
 -20.768  0.126E+00  0.126E+00
 -20.767  0.126E+00  0.126E+00
 -20.766  0.126E+00  0.126E+00
 -20.765  0.126E+00  0.126E+00
 -20.764  0.126E+00  0.126E+00
 -20.763  0.126E+00  0.126E+00
 -20.762  0.126E+00  0.126E+00
 -20.761  0.126E+00  0.126E+00
 -20.760  0.126E+00  0.126E+00
 -20.759  0.126E+00  0.126E+00
 -20.758  0.125E+00  0.125E+00
 -20.757  0.125E+00  0.125E+00
 -20.756  0.125E+00  0.125E+00
 -20.755  0.125E+00  0.125E+00
 -20.754  0.125E+00  0.125E+00
 -20.753  0.125E+00  0.125E+00
 -20.752  0.125E+00  0.125E+00
 -20.751  0.125E+00  0.125E+00
 -20.750  0.125E+00  0.125E+00
 -20.749  0.125E+00  0.125E+00
 -20.748  0.125E+00  0.125E+00
 -20.747  0.125E+00  0.125E+00
 -20.746  0.125E+00  0.125E+00
 -20.745  0.125E+00  0.125E+00
 -20.744  0.125E+00  0.125E+00
 -20.743  0.125E+00  0.125E+00
 -20.742  0.125E+00  0.125E+00
 -20.741  0.125E+00  0.125E+00
 -20.740  0.125E+00  0.125E+00
 -20.739  0.125E+00  0.125E+00
 -20.738  0.125E+00  0.125E+00
 -20.737  0.125E+00  0.125E+00
 -20.736  0.125E+00  0.125E+00
 -20.735  0.125E+00  0.125E+00
 -20.734  0.125E+00  0.125E+00
 -20.733  0.125E+00  0.125E+00
 -20.732  0.125E+00  0.125E+00
 -20.731  0.124E+00  0.124E+00
 -20.730  0.124E+00  0.124E+00
 -20.729  0.124E+00  0.124E+00
 -20.728  0.124E+00  0.124E+00
 -20.727  0.124E+00  0.124E+00
 -20.726  0.124E+00  0.124E+00
 -20.725  0.124E+00  0.124E+00
 -20.724  0.124E+00  0.124E+00
 -20.723  0.124E+00  0.124E+00
 -20.722  0.124E+00  0.124E+00
 -20.721  0.124E+00  0.124E+00
 -20.720  0.124E+00  0.124E+00
 -20.719  0.124E+00  0.124E+00
 -20.718  0.124E+00  0.124E+00
 -20.717  0.124E+00  0.124E+00
 -20.716  0.124E+00  0.124E+00
 -20.715  0.124E+00  0.124E+00
 -20.714  0.124E+00  0.124E+00
 -20.713  0.124E+00  0.124E+00
 -20.712  0.124E+00  0.124E+00
 -20.711  0.124E+00  0.124E+00
 -20.710  0.124E+00  0.124E+00
 -20.709  0.124E+00  0.124E+00
 -20.708  0.124E+00  0.124E+00
 -20.707  0.124E+00  0.124E+00
 -20.706  0.124E+00  0.124E+00
 -20.705  0.124E+00  0.124E+00
 -20.704  0.124E+00  0.124E+00
 -20.703  0.124E+00  0.124E+00
 -20.702  0.124E+00  0.124E+00
 -20.701  0.123E+00  0.123E+00
 -20.700  0.123E+00  0.123E+00
 -20.699  0.123E+00  0.123E+00
 -20.698  0.123E+00  0.123E+00
 -20.697  0.123E+00  0.123E+00
 -20.696  0.123E+00  0.123E+00
 -20.695  0.123E+00  0.123E+00
 -20.694  0.123E+00  0.123E+00
 -20.693  0.123E+00  0.123E+00
 -20.692  0.123E+00  0.123E+00
 -20.691  0.123E+00  0.123E+00
 -20.690  0.123E+00  0.123E+00
 -20.689  0.123E+00  0.123E+00
 -20.688  0.123E+00  0.123E+00
 -20.687  0.123E+00  0.123E+00
 -20.686  0.123E+00  0.123E+00
 -20.685  0.123E+00  0.123E+00
 -20.684  0.123E+00  0.123E+00
 -20.683  0.123E+00  0.123E+00
 -20.682  0.123E+00  0.123E+00
 -20.681  0.123E+00  0.123E+00
 -20.680  0.123E+00  0.123E+00
 -20.679  0.123E+00  0.123E+00
 -20.678  0.123E+00  0.123E+00
 -20.677  0.123E+00  0.123E+00
 -20.676  0.123E+00  0.123E+00
 -20.675  0.123E+00  0.123E+00
 -20.674  0.123E+00  0.123E+00
 -20.673  0.123E+00  0.123E+00
 -20.672  0.123E+00  0.123E+00
 -20.671  0.123E+00  0.123E+00
 -20.670  0.123E+00  0.123E+00
 -20.669  0.123E+00  0.123E+00
 -20.668  0.123E+00  0.123E+00
 -20.667  0.123E+00  0.123E+00
 -20.666  0.123E+00  0.123E+00
 -20.665  0.123E+00  0.123E+00
 -20.664  0.122E+00  0.122E+00
 -20.663  0.122E+00  0.122E+00
 -20.662  0.122E+00  0.122E+00
 -20.661  0.122E+00  0.122E+00
 -20.660  0.122E+00  0.122E+00
 -20.659  0.122E+00  0.122E+00
 -20.658  0.122E+00  0.122E+00
 -20.657  0.122E+00  0.122E+00
 -20.656  0.122E+00  0.122E+00
 -20.655  0.122E+00  0.122E+00
 -20.654  0.122E+00  0.122E+00
 -20.653  0.122E+00  0.122E+00
 -20.652  0.122E+00  0.122E+00
 -20.651  0.122E+00  0.122E+00
 -20.650  0.122E+00  0.122E+00
 -20.649  0.122E+00  0.122E+00
 -20.648  0.122E+00  0.122E+00
 -20.647  0.122E+00  0.122E+00
 -20.646  0.122E+00  0.122E+00
 -20.645  0.122E+00  0.122E+00
 -20.644  0.122E+00  0.122E+00
 -20.643  0.122E+00  0.122E+00
 -20.642  0.122E+00  0.122E+00
 -20.641  0.122E+00  0.122E+00
 -20.640  0.122E+00  0.122E+00
 -20.639  0.122E+00  0.122E+00
 -20.638  0.122E+00  0.122E+00
 -20.637  0.122E+00  0.122E+00
 -20.636  0.122E+00  0.122E+00
 -20.635  0.122E+00  0.122E+00
 -20.634  0.122E+00  0.122E+00
 -20.633  0.122E+00  0.122E+00
 -20.632  0.122E+00  0.122E+00
 -20.631  0.122E+00  0.122E+00
 -20.630  0.122E+00  0.122E+00
 -20.629  0.122E+00  0.122E+00
 -20.628  0.122E+00  0.122E+00
 -20.627  0.122E+00  0.122E+00
 -20.626  0.122E+00  0.122E+00
 -20.625  0.122E+00  0.122E+00
 -20.624  0.122E+00  0.122E+00
 -20.623  0.122E+00  0.122E+00
 -20.622  0.122E+00  0.122E+00
 -20.621  0.122E+00  0.122E+00
 -20.620  0.122E+00  0.122E+00
 -20.619  0.122E+00  0.122E+00
 -20.618  0.122E+00  0.122E+00
 -20.617  0.122E+00  0.122E+00
 -20.616  0.122E+00  0.122E+00
 -20.615  0.122E+00  0.122E+00
 -20.614  0.122E+00  0.122E+00
 -20.613  0.122E+00  0.122E+00
 -20.612  0.122E+00  0.122E+00
 -20.611  0.122E+00  0.122E+00
 -20.610  0.122E+00  0.122E+00
 -20.609  0.122E+00  0.122E+00
 -20.608  0.121E+00  0.121E+00
 -20.607  0.121E+00  0.121E+00
 -20.606  0.121E+00  0.121E+00
 -20.605  0.121E+00  0.121E+00
 -20.604  0.121E+00  0.121E+00
 -20.603  0.121E+00  0.121E+00
 -20.602  0.121E+00  0.121E+00
 -20.601  0.121E+00  0.121E+00
 -20.600  0.121E+00  0.121E+00
 -20.599  0.121E+00  0.121E+00
 -20.598  0.121E+00  0.121E+00
 -20.597  0.121E+00  0.121E+00
 -20.596  0.121E+00  0.121E+00
 -20.595  0.121E+00  0.121E+00
 -20.594  0.121E+00  0.121E+00
 -20.593  0.121E+00  0.121E+00
 -20.592  0.121E+00  0.121E+00
 -20.591  0.121E+00  0.121E+00
 -20.590  0.121E+00  0.121E+00
 -20.589  0.121E+00  0.121E+00
 -20.588  0.121E+00  0.121E+00
 -20.587  0.121E+00  0.121E+00
 -20.586  0.121E+00  0.121E+00
 -20.585  0.121E+00  0.121E+00
 -20.584  0.121E+00  0.121E+00
 -20.583  0.121E+00  0.121E+00
 -20.582  0.121E+00  0.121E+00
 -20.581  0.121E+00  0.121E+00
 -20.580  0.121E+00  0.121E+00
 -20.579  0.121E+00  0.121E+00
 -20.578  0.121E+00  0.121E+00