# E (eV)   ldos(E)   pdos(E)   
 -21.338  0.000E+00  0.000E+00
 -21.337  0.158E+00  0.158E+00
 -21.336  0.134E+00  0.134E+00
 -21.335  0.148E+00  0.148E+00
 -21.334  0.161E+00  0.161E+00
 -21.333  0.172E+00  0.172E+00
 -21.332  0.156E+00  0.156E+00
 -21.331  0.148E+00  0.148E+00
 -21.330  0.153E+00  0.153E+00
 -21.329  0.157E+00  0.157E+00
 -21.328  0.162E+00  0.162E+00
 -21.327  0.167E+00  0.167E+00
 -21.326  0.156E+00  0.156E+00
 -21.325  0.155E+00  0.155E+00
 -21.324  0.154E+00  0.154E+00
 -21.323  0.154E+00  0.154E+00
 -21.322  0.156E+00  0.156E+00
 -21.321  0.158E+00  0.158E+00
 -21.320  0.161E+00  0.161E+00
 -21.319  0.163E+00  0.163E+00
 -21.318  0.163E+00  0.163E+00
 -21.317  0.157E+00  0.157E+00
 -21.316  0.155E+00  0.155E+00
 -21.315  0.156E+00  0.156E+00
 -21.314  0.157E+00  0.157E+00
 -21.313  0.157E+00  0.157E+00
 -21.312  0.158E+00  0.158E+00
 -21.311  0.159E+00  0.159E+00
 -21.310  0.161E+00  0.161E+00
 -21.309  0.162E+00  0.162E+00
 -21.308  0.164E+00  0.164E+00
 -21.307  0.166E+00  0.166E+00
 -21.306  0.161E+00  0.161E+00
 -21.305  0.160E+00  0.160E+00
 -21.304  0.159E+00  0.159E+00
 -21.303  0.159E+00  0.159E+00
 -21.302  0.160E+00  0.160E+00
 -21.301  0.161E+00  0.161E+00
 -21.300  0.162E+00  0.162E+00
 -21.299  0.163E+00  0.163E+00
 -21.298  0.164E+00  0.164E+00
 -21.297  0.166E+00  0.166E+00
 -21.296  0.168E+00  0.168E+00
 -21.295  0.170E+00  0.170E+00
 -21.294  0.173E+00  0.173E+00
 -21.293  0.173E+00  0.173E+00
 -21.292  0.173E+00  0.173E+00
 -21.291  0.177E+00  0.177E+00
 -21.290  0.181E+00  0.181E+00
 -21.289  0.186E+00  0.186E+00
 -21.288  0.192E+00  0.192E+00
 -21.287  0.310E+00  0.310E+00
 -21.286  0.289E+00  0.289E+00
 -21.285  0.265E+00  0.265E+00
 -21.284  0.238E+00  0.238E+00
 -21.283  0.208E+00  0.208E+00
 -21.282  0.175E+00  0.175E+00
 -21.281  0.143E+00  0.143E+00
 -21.280  0.136E+00  0.136E+00
 -21.279  0.129E+00  0.129E+00
 -21.278  0.121E+00  0.121E+00
 -21.277  0.394E+00  0.394E+00
 -21.276  0.657E-01  0.657E-01
 -21.275  0.709E-01  0.709E-01
 -21.274  0.762E-01  0.762E-01
 -21.273  0.814E-01  0.814E-01
 -21.272  0.867E-01  0.867E-01
 -21.271  0.102E+00  0.102E+00
 -21.270  0.129E+00  0.129E+00
 -21.269  0.160E+00  0.160E+00
 -21.268  0.197E+00  0.197E+00
 -21.267  0.121E+00  0.121E+00
 -21.266  0.120E+00  0.120E+00
 -21.265  0.118E+00  0.118E+00
 -21.264  0.116E+00  0.116E+00
 -21.263  0.113E+00  0.113E+00
 -21.262  0.110E+00  0.110E+00
 -21.261  0.114E+00  0.114E+00
 -21.260  0.135E+00  0.135E+00
 -21.259  0.195E+00  0.195E+00
 -21.258  0.294E+00  0.294E+00
 -21.257  0.128E+00  0.128E+00
 -21.256  0.128E+00  0.128E+00
 -21.255  0.128E+00  0.128E+00
 -21.254  0.128E+00  0.128E+00
 -21.253  0.127E+00  0.127E+00
 -21.252  0.127E+00  0.127E+00
 -21.251  0.128E+00  0.128E+00
 -21.250  0.128E+00  0.128E+00
 -21.249  0.128E+00  0.128E+00
 -21.248  0.129E+00  0.129E+00
 -21.247  0.130E+00  0.130E+00
 -21.246  0.131E+00  0.131E+00
 -21.245  0.132E+00  0.132E+00
 -21.244  0.133E+00  0.133E+00
 -21.243  0.134E+00  0.134E+00
 -21.242  0.136E+00  0.136E+00
 -21.241  0.137E+00  0.137E+00
 -21.240  0.139E+00  0.139E+00
 -21.239  0.141E+00  0.141E+00
 -21.238  0.143E+00  0.143E+00
 -21.237  0.177E+00  0.177E+00
 -21.236  0.168E+00  0.168E+00
 -21.235  0.162E+00  0.162E+00
 -21.234  0.156E+00  0.156E+00
 -21.233  0.153E+00  0.153E+00
 -21.232  0.150E+00  0.150E+00
 -21.231  0.151E+00  0.151E+00
 -21.230  0.152E+00  0.152E+00
 -21.229  0.153E+00  0.153E+00
 -21.228  0.153E+00  0.153E+00
 -21.227  0.121E+00  0.121E+00
 -21.226  0.122E+00  0.122E+00
 -21.225  0.123E+00  0.123E+00
 -21.224  0.124E+00  0.124E+00
 -21.223  0.125E+00  0.125E+00
 -21.222  0.126E+00  0.126E+00
 -21.221  0.128E+00  0.128E+00
 -21.220  0.129E+00  0.129E+00
 -21.219  0.131E+00  0.131E+00
 -21.218  0.133E+00  0.133E+00
 -21.217  0.134E+00  0.134E+00
 -21.216  0.136E+00  0.136E+00
 -21.215  0.137E+00  0.137E+00
 -21.214  0.138E+00  0.138E+00
 -21.213  0.138E+00  0.138E+00
 -21.212  0.138E+00  0.138E+00
 -21.211  0.139E+00  0.139E+00
 -21.210  0.139E+00  0.139E+00
 -21.209  0.139E+00  0.139E+00
 -21.208  0.138E+00  0.138E+00
 -21.207  0.154E+00  0.154E+00
 -21.206  0.151E+00  0.151E+00
 -21.205  0.148E+00  0.148E+00
 -21.204  0.146E+00  0.146E+00
 -21.203  0.143E+00  0.143E+00
 -21.202  0.141E+00  0.141E+00
 -21.201  0.141E+00  0.141E+00
 -21.200  0.140E+00  0.140E+00
 -21.199  0.140E+00  0.140E+00
 -21.198  0.140E+00  0.140E+00
 -21.197  0.140E+00  0.140E+00
 -21.196  0.140E+00  0.140E+00
 -21.195  0.141E+00  0.141E+00
 -21.194  0.141E+00  0.141E+00
 -21.193  0.142E+00  0.142E+00
 -21.192  0.142E+00  0.142E+00
 -21.191  0.142E+00  0.142E+00
 -21.190  0.142E+00  0.142E+00
 -21.189  0.143E+00  0.143E+00
 -21.188  0.124E+00  0.124E+00
 -21.187  0.124E+00  0.124E+00
 -21.186  0.124E+00  0.124E+00
 -21.185  0.123E+00  0.123E+00
 -21.184  0.123E+00  0.123E+00
 -21.183  0.122E+00  0.122E+00
 -21.182  0.121E+00  0.121E+00
 -21.181  0.120E+00  0.120E+00
 -21.180  0.119E+00  0.119E+00
 -21.179  0.118E+00  0.118E+00
 -21.178  0.116E+00  0.116E+00
 -21.177  0.115E+00  0.115E+00
 -21.176  0.113E+00  0.113E+00
 -21.175  0.111E+00  0.111E+00
 -21.174  0.109E+00  0.109E+00
 -21.173  0.107E+00  0.107E+00
 -21.172  0.105E+00  0.105E+00
 -21.171  0.102E+00  0.102E+00
 -21.170  0.997E-01  0.997E-01
 -21.169  0.969E-01  0.969E-01
 -21.168  0.104E+00  0.104E+00
 -21.167  0.993E-01  0.993E-01
 -21.166  0.949E-01  0.949E-01
 -21.165  0.905E-01  0.905E-01
 -21.164  0.861E-01  0.861E-01
 -21.163  0.816E-01  0.816E-01
 -21.162  0.771E-01  0.771E-01
 -21.161  0.726E-01  0.726E-01
 -21.160  0.683E-01  0.683E-01
 -21.159  0.785E-01  0.785E-01
 -21.158  0.105E+00  0.105E+00
 -21.157  0.115E+00  0.115E+00
 -21.156  0.122E+00  0.122E+00
 -21.155  0.129E+00  0.129E+00
 -21.154  0.135E+00  0.135E+00
 -21.153  0.142E+00  0.142E+00
 -21.152  0.145E+00  0.145E+00
 -21.151  0.147E+00  0.147E+00
 -21.150  0.150E+00  0.150E+00
 -21.149  0.152E+00  0.152E+00
 -21.148  0.155E+00  0.155E+00
 -21.147  0.157E+00  0.157E+00
 -21.146  0.159E+00  0.159E+00
 -21.145  0.162E+00  0.162E+00
 -21.144  0.163E+00  0.163E+00
 -21.143  0.163E+00  0.163E+00
 -21.142  0.164E+00  0.164E+00
 -21.141  0.164E+00  0.164E+00
 -21.140  0.164E+00  0.164E+00
 -21.139  0.153E+00  0.153E+00
 -21.138  0.153E+00  0.153E+00
 -21.137  0.153E+00  0.153E+00
 -21.136  0.153E+00  0.153E+00
 -21.135  0.153E+00  0.153E+00
 -21.134  0.153E+00  0.153E+00
 -21.133  0.153E+00  0.153E+00
 -21.132  0.153E+00  0.153E+00
 -21.131  0.152E+00  0.152E+00
 -21.130  0.151E+00  0.151E+00
 -21.129  0.149E+00  0.149E+00
 -21.128  0.149E+00  0.149E+00
 -21.127  0.148E+00  0.148E+00
 -21.126  0.148E+00  0.148E+00
 -21.125  0.148E+00  0.148E+00
 -21.124  0.148E+00  0.148E+00
 -21.123  0.149E+00  0.149E+00
 -21.122  0.149E+00  0.149E+00
 -21.121  0.150E+00  0.150E+00
 -21.120  0.151E+00  0.151E+00
 -21.119  0.152E+00  0.152E+00
 -21.118  0.237E+00  0.237E+00
 -21.117  0.235E+00  0.235E+00
 -21.116  0.231E+00  0.231E+00
 -21.115  0.227E+00  0.227E+00
 -21.114  0.222E+00  0.222E+00
 -21.113  0.217E+00  0.217E+00
 -21.112  0.210E+00  0.210E+00
 -21.111  0.203E+00  0.203E+00
 -21.110  0.195E+00  0.195E+00
 -21.109  0.233E+00  0.233E+00
 -21.108  0.218E+00  0.218E+00
 -21.107  0.202E+00  0.202E+00
 -21.106  0.185E+00  0.185E+00
 -21.105  0.166E+00  0.166E+00
 -21.104  0.147E+00  0.147E+00
 -21.103  0.138E+00  0.138E+00
 -21.102  0.128E+00  0.128E+00
 -21.101  0.118E+00  0.118E+00
 -21.100  0.109E+00  0.109E+00
 -21.099  0.987E-01  0.987E-01
 -21.098  0.887E-01  0.887E-01
 -21.097  0.879E-01  0.879E-01
 -21.096  0.871E-01  0.871E-01
 -21.095  0.862E-01  0.862E-01
 -21.094  0.874E-01  0.874E-01
 -21.093  0.904E-01  0.904E-01
 -21.092  0.934E-01  0.934E-01
 -21.091  0.965E-01  0.965E-01
 -21.090  0.996E-01  0.996E-01
 -21.089  0.166E+00  0.166E+00
 -21.088  0.157E+00  0.157E+00
 -21.087  0.147E+00  0.147E+00
 -21.086  0.136E+00  0.136E+00
 -21.085  0.124E+00  0.124E+00
 -21.084  0.111E+00  0.111E+00
 -21.083  0.102E+00  0.102E+00
 -21.082  0.105E+00  0.105E+00
 -21.081  0.109E+00  0.109E+00
 -21.080  0.113E+00  0.113E+00
 -21.079  0.962E-01  0.962E-01
 -21.078  0.102E+00  0.102E+00
 -21.077  0.109E+00  0.109E+00
 -21.076  0.116E+00  0.116E+00
 -21.075  0.123E+00  0.123E+00
 -21.074  0.131E+00  0.131E+00
 -21.073  0.139E+00  0.139E+00
 -21.072  0.147E+00  0.147E+00
 -21.071  0.156E+00  0.156E+00
 -21.070  0.165E+00  0.165E+00
 -21.069  0.115E+00  0.115E+00
 -21.068  0.116E+00  0.116E+00
 -21.067  0.117E+00  0.117E+00
 -21.066  0.118E+00  0.118E+00
 -21.065  0.119E+00  0.119E+00
 -21.064  0.119E+00  0.119E+00
 -21.063  0.120E+00  0.120E+00
 -21.062  0.121E+00  0.121E+00
 -21.061  0.122E+00  0.122E+00
 -21.060  0.339E+00  0.339E+00
 -21.059  0.182E+00  0.182E+00
 -21.058  0.111E+00  0.111E+00
 -21.057  0.111E+00  0.111E+00
 -21.056  0.111E+00  0.111E+00
 -21.055  0.113E+00  0.113E+00
 -21.054  0.128E+00  0.128E+00
 -21.053  0.145E+00  0.145E+00
 -21.052  0.164E+00  0.164E+00
 -21.051  0.185E+00  0.185E+00
 -21.050  0.118E+00  0.118E+00
 -21.049  0.117E+00  0.117E+00
 -21.048  0.117E+00  0.117E+00
 -21.047  0.117E+00  0.117E+00
 -21.046  0.116E+00  0.116E+00
 -21.045  0.116E+00  0.116E+00
 -21.044  0.115E+00  0.115E+00
 -21.043  0.115E+00  0.115E+00
 -21.042  0.115E+00  0.115E+00
 -21.041  0.115E+00  0.115E+00
 -21.040  0.114E+00  0.114E+00
 -21.039  0.114E+00  0.114E+00
 -21.038  0.115E+00  0.115E+00
 -21.037  0.115E+00  0.115E+00
 -21.036  0.115E+00  0.115E+00
 -21.035  0.116E+00  0.116E+00
 -21.034  0.116E+00  0.116E+00
 -21.033  0.117E+00  0.117E+00
 -21.032  0.118E+00  0.118E+00
 -21.031  0.118E+00  0.118E+00
 -21.030  0.119E+00  0.119E+00
 -21.029  0.120E+00  0.120E+00
 -21.028  0.121E+00  0.121E+00
 -21.027  0.122E+00  0.122E+00
 -21.026  0.123E+00  0.123E+00
 -21.025  0.123E+00  0.123E+00
 -21.024  0.124E+00  0.124E+00
 -21.023  0.274E+00  0.274E+00
 -21.022  0.391E+00  0.391E+00
 -21.021  0.392E+00  0.392E+00
 -21.020  0.125E+00  0.125E+00
 -21.019  0.125E+00  0.125E+00
 -21.018  0.125E+00  0.125E+00
 -21.017  0.124E+00  0.124E+00
 -21.016  0.124E+00  0.124E+00
 -21.015  0.124E+00  0.124E+00
 -21.014  0.124E+00  0.124E+00
 -21.013  0.124E+00  0.124E+00
 -21.012  0.124E+00  0.124E+00
 -21.011  0.118E+00  0.118E+00
 -21.010  0.118E+00  0.118E+00
 -21.009  0.118E+00  0.118E+00
 -21.008  0.119E+00  0.119E+00
 -21.007  0.119E+00  0.119E+00
 -21.006  0.119E+00  0.119E+00
 -21.005  0.119E+00  0.119E+00
 -21.004  0.120E+00  0.120E+00
 -21.003  0.120E+00  0.120E+00
 -21.002  0.120E+00  0.120E+00
 -21.001  0.121E+00  0.121E+00
 -21.000  0.121E+00  0.121E+00
 -20.999  0.122E+00  0.122E+00
 -20.998  0.122E+00  0.122E+00
 -20.997  0.123E+00  0.123E+00
 -20.996  0.123E+00  0.123E+00
 -20.995  0.124E+00  0.124E+00
 -20.994  0.124E+00  0.124E+00
 -20.993  0.124E+00  0.124E+00
 -20.992  0.125E+00  0.125E+00
 -20.991  0.125E+00  0.125E+00
 -20.990  0.128E+00  0.128E+00
 -20.989  0.129E+00  0.129E+00
 -20.988  0.129E+00  0.129E+00
 -20.987  0.129E+00  0.129E+00
 -20.986  0.129E+00  0.129E+00
 -20.985  0.130E+00  0.130E+00
 -20.984  0.130E+00  0.130E+00
 -20.983  0.130E+00  0.130E+00
 -20.982  0.131E+00  0.131E+00
 -20.981  0.184E+00  0.184E+00
 -20.980  0.169E+00  0.169E+00
 -20.979  0.161E+00  0.161E+00
 -20.978  0.154E+00  0.154E+00
 -20.977  0.149E+00  0.149E+00
 -20.976  0.147E+00  0.147E+00
 -20.975  0.150E+00  0.150E+00
 -20.974  0.152E+00  0.152E+00
 -20.973  0.154E+00  0.154E+00
 -20.972  0.156E+00  0.156E+00
 -20.971  0.121E+00  0.121E+00
 -20.970  0.121E+00  0.121E+00
 -20.969  0.120E+00  0.120E+00
 -20.968  0.120E+00  0.120E+00
 -20.967  0.120E+00  0.120E+00
 -20.966  0.119E+00  0.119E+00
 -20.965  0.119E+00  0.119E+00
 -20.964  0.119E+00  0.119E+00
 -20.963  0.119E+00  0.119E+00
 -20.962  0.119E+00  0.119E+00
 -20.961  0.119E+00  0.119E+00
 -20.960  0.121E+00  0.121E+00
 -20.959  0.123E+00  0.123E+00
 -20.958  0.125E+00  0.125E+00
 -20.957  0.126E+00  0.126E+00
 -20.956  0.128E+00  0.128E+00
 -20.955  0.129E+00  0.129E+00
 -20.954  0.131E+00  0.131E+00
 -20.953  0.132E+00  0.132E+00
 -20.952  0.133E+00  0.133E+00
 -20.951  0.134E+00  0.134E+00
 -20.950  0.135E+00  0.135E+00
 -20.949  0.135E+00  0.135E+00
 -20.948  0.139E+00  0.139E+00
 -20.947  0.145E+00  0.145E+00
 -20.946  0.150E+00  0.150E+00
 -20.945  0.155E+00  0.155E+00
 -20.944  0.160E+00  0.160E+00
 -20.943  0.165E+00  0.165E+00
 -20.942  0.170E+00  0.170E+00
 -20.941  0.175E+00  0.175E+00
 -20.940  0.180E+00  0.180E+00
 -20.939  0.185E+00  0.185E+00
 -20.938  0.242E+00  0.242E+00
 -20.937  0.296E+00  0.296E+00
 -20.936  0.262E+00  0.262E+00
 -20.935  0.227E+00  0.227E+00
 -20.934  0.191E+00  0.191E+00
 -20.933  0.154E+00  0.154E+00
 -20.932  0.895E-01  0.895E-01
 -20.931  0.865E-01  0.865E-01
 -20.930  0.821E-01  0.821E-01
 -20.929  0.764E-01  0.764E-01
 -20.928  0.692E-01  0.692E-01
 -20.927  0.606E-01  0.606E-01
 -20.926  0.506E-01  0.506E-01
 -20.925  0.392E-01  0.392E-01
 -20.924  0.272E-01  0.272E-01
 -20.923  0.272E-01  0.272E-01
 -20.922  0.373E-01  0.373E-01
 -20.921  0.474E-01  0.474E-01
 -20.920  0.564E-01  0.564E-01
 -20.919  0.645E-01  0.645E-01
 -20.918  0.716E-01  0.716E-01
 -20.917  0.779E-01  0.779E-01
 -20.916  0.833E-01  0.833E-01
 -20.915  0.877E-01  0.877E-01
 -20.914  0.912E-01  0.912E-01
 -20.913  0.936E-01  0.936E-01
 -20.912  0.693E-01  0.693E-01
 -20.911  0.753E-01  0.753E-01
 -20.910  0.813E-01  0.813E-01
 -20.909  0.874E-01  0.874E-01
 -20.908  0.935E-01  0.935E-01
 -20.907  0.996E-01  0.996E-01
 -20.906  0.106E+00  0.106E+00
 -20.905  0.112E+00  0.112E+00
 -20.904  0.118E+00  0.118E+00
 -20.903  0.124E+00  0.124E+00
 -20.902  0.130E+00  0.130E+00
 -20.901  0.137E+00  0.137E+00
 -20.900  0.143E+00  0.143E+00
 -20.899  0.149E+00  0.149E+00
 -20.898  0.156E+00  0.156E+00
 -20.897  0.144E+00  0.144E+00
 -20.896  0.133E+00  0.133E+00
 -20.895  0.122E+00  0.122E+00
 -20.894  0.112E+00  0.112E+00
 -20.893  0.103E+00  0.103E+00
 -20.892  0.133E+00  0.133E+00
 -20.891  0.134E+00  0.134E+00
 -20.890  0.137E+00  0.137E+00
 -20.889  0.141E+00  0.141E+00
 -20.888  0.149E+00  0.149E+00
 -20.887  0.161E+00  0.161E+00
 -20.886  0.175E+00  0.175E+00
 -20.885  0.191E+00  0.191E+00
 -20.884  0.208E+00  0.208E+00
 -20.883  0.226E+00  0.226E+00
 -20.882  0.222E+00  0.222E+00
 -20.881  0.209E+00  0.209E+00
 -20.880  0.196E+00  0.196E+00
 -20.879  0.185E+00  0.185E+00
 -20.878  0.174E+00  0.174E+00
 -20.877  0.164E+00  0.164E+00
 -20.876  0.155E+00  0.155E+00
 -20.875  0.146E+00  0.146E+00
 -20.874  0.138E+00  0.138E+00
 -20.873  0.148E+00  0.148E+00
 -20.872  0.145E+00  0.145E+00
 -20.871  0.142E+00  0.142E+00
 -20.870  0.139E+00  0.139E+00
 -20.869  0.136E+00  0.136E+00
 -20.868  0.133E+00  0.133E+00
 -20.867  0.130E+00  0.130E+00
 -20.866  0.127E+00  0.127E+00
 -20.865  0.124E+00  0.124E+00
 -20.864  0.121E+00  0.121E+00
 -20.863  0.119E+00  0.119E+00
 -20.862  0.118E+00  0.118E+00
 -20.861  0.119E+00  0.119E+00
 -20.860  0.119E+00  0.119E+00
 -20.859  0.120E+00  0.120E+00
 -20.858  0.100E+00  0.100E+00
 -20.857  0.102E+00  0.102E+00
 -20.856  0.103E+00  0.103E+00
 -20.855  0.105E+00  0.105E+00
 -20.854  0.106E+00  0.106E+00
 -20.853  0.108E+00  0.108E+00
 -20.852  0.110E+00  0.110E+00
 -20.851  0.111E+00  0.111E+00
 -20.850  0.113E+00  0.113E+00
 -20.849  0.115E+00  0.115E+00
 -20.848  0.117E+00  0.117E+00
 -20.847  0.118E+00  0.118E+00
 -20.846  0.120E+00  0.120E+00
 -20.845  0.122E+00  0.122E+00
 -20.844  0.106E+00  0.106E+00
 -20.843  0.107E+00  0.107E+00
 -20.842  0.108E+00  0.108E+00
 -20.841  0.110E+00  0.110E+00
 -20.840  0.111E+00  0.111E+00
 -20.839  0.113E+00  0.113E+00
 -20.838  0.114E+00  0.114E+00
 -20.837  0.112E+00  0.112E+00
 -20.836  0.111E+00  0.111E+00
 -20.835  0.110E+00  0.110E+00
 -20.834  0.108E+00  0.108E+00
 -20.833  0.138E+00  0.138E+00
 -20.832  0.145E+00  0.145E+00
 -20.831  0.152E+00  0.152E+00
 -20.830  0.152E+00  0.152E+00
 -20.829  0.148E+00  0.148E+00
 -20.828  0.145E+00  0.145E+00
 -20.827  0.141E+00  0.141E+00
 -20.826  0.138E+00  0.138E+00
 -20.825  0.134E+00  0.134E+00
 -20.824  0.131E+00  0.131E+00
 -20.823  0.132E+00  0.132E+00
 -20.822  0.130E+00  0.130E+00
 -20.821  0.129E+00  0.129E+00
 -20.820  0.127E+00  0.127E+00
 -20.819  0.126E+00  0.126E+00
 -20.818  0.129E+00  0.129E+00
 -20.817  0.131E+00  0.131E+00
 -20.816  0.133E+00  0.133E+00
 -20.815  0.135E+00  0.135E+00
 -20.814  0.137E+00  0.137E+00
 -20.813  0.138E+00  0.138E+00
 -20.812  0.140E+00  0.140E+00
 -20.811  0.141E+00  0.141E+00
 -20.810  0.143E+00  0.143E+00
 -20.809  0.144E+00  0.144E+00
 -20.808  0.145E+00  0.145E+00
 -20.807  0.147E+00  0.147E+00
 -20.806  0.148E+00  0.148E+00
 -20.805  0.150E+00  0.150E+00
 -20.804  0.341E+00  0.341E+00
 -20.803  0.196E+00  0.196E+00
 -20.802  0.145E+00  0.145E+00
 -20.801  0.139E+00  0.139E+00
 -20.800  0.133E+00  0.133E+00
 -20.799  0.129E+00  0.129E+00
 -20.798  0.126E+00  0.126E+00
 -20.797  0.122E+00  0.122E+00
 -20.796  0.119E+00  0.119E+00
 -20.795  0.117E+00  0.117E+00
 -20.794  0.114E+00  0.114E+00
 -20.793  0.112E+00  0.112E+00
 -20.792  0.110E+00  0.110E+00
 -20.791  0.108E+00  0.108E+00
 -20.790  0.106E+00  0.106E+00
 -20.789  0.105E+00  0.105E+00
 -20.788  0.104E+00  0.104E+00
 -20.787  0.106E+00  0.106E+00
 -20.786  0.108E+00  0.108E+00
 -20.785  0.110E+00  0.110E+00
 -20.784  0.112E+00  0.112E+00
 -20.783  0.114E+00  0.114E+00
 -20.782  0.116E+00  0.116E+00
 -20.781  0.119E+00  0.119E+00
 -20.780  0.122E+00  0.122E+00
 -20.779  0.125E+00  0.125E+00
 -20.778  0.128E+00  0.128E+00
 -20.777  0.132E+00  0.132E+00
 -20.776  0.136E+00  0.136E+00
 -20.775  0.178E+00  0.178E+00
 -20.774  0.152E+00  0.152E+00
 -20.773  0.151E+00  0.151E+00
 -20.772  0.149E+00  0.149E+00
 -20.771  0.148E+00  0.148E+00
 -20.770  0.146E+00  0.146E+00
 -20.769  0.145E+00  0.145E+00
 -20.768  0.144E+00  0.144E+00
 -20.767  0.143E+00  0.143E+00
 -20.766  0.142E+00  0.142E+00
 -20.765  0.163E+00  0.163E+00
 -20.764  0.149E+00  0.149E+00
 -20.763  0.139E+00  0.139E+00
 -20.762  0.131E+00  0.131E+00
 -20.761  0.123E+00  0.123E+00
 -20.760  0.118E+00  0.118E+00
 -20.759  0.117E+00  0.117E+00
 -20.758  0.117E+00  0.117E+00
 -20.757  0.117E+00  0.117E+00
 -20.756  0.117E+00  0.117E+00
 -20.755  0.117E+00  0.117E+00
 -20.754  0.117E+00  0.117E+00
 -20.753  0.117E+00  0.117E+00
 -20.752  0.117E+00  0.117E+00
 -20.751  0.117E+00  0.117E+00
 -20.750  0.117E+00  0.117E+00
 -20.749  0.117E+00  0.117E+00
 -20.748  0.117E+00  0.117E+00
 -20.747  0.117E+00  0.117E+00
 -20.746  0.117E+00  0.117E+00
 -20.745  0.111E+00  0.111E+00
 -20.744  0.111E+00  0.111E+00
 -20.743  0.110E+00  0.110E+00
 -20.742  0.110E+00  0.110E+00
 -20.741  0.109E+00  0.109E+00
 -20.740  0.109E+00  0.109E+00
 -20.739  0.110E+00  0.110E+00
 -20.738  0.110E+00  0.110E+00
 -20.737  0.111E+00  0.111E+00
 -20.736  0.111E+00  0.111E+00
 -20.735  0.165E+00  0.165E+00
 -20.734  0.155E+00  0.155E+00
 -20.733  0.145E+00  0.145E+00
 -20.732  0.134E+00  0.134E+00
 -20.731  0.123E+00  0.123E+00
 -20.730  0.112E+00  0.112E+00
 -20.729  0.106E+00  0.106E+00
 -20.728  0.106E+00  0.106E+00
 -20.727  0.107E+00  0.107E+00
 -20.726  0.107E+00  0.107E+00
 -20.725  0.120E+00  0.120E+00
 -20.724  0.125E+00  0.125E+00
 -20.723  0.129E+00  0.129E+00
 -20.722  0.135E+00  0.135E+00
 -20.721  0.140E+00  0.140E+00
 -20.720  0.145E+00  0.145E+00
 -20.719  0.150E+00  0.150E+00
 -20.718  0.156E+00  0.156E+00
 -20.717  0.162E+00  0.162E+00
 -20.716  0.123E+00  0.123E+00
 -20.715  0.119E+00  0.119E+00
 -20.714  0.116E+00  0.116E+00
 -20.713  0.113E+00  0.113E+00
 -20.712  0.112E+00  0.112E+00
 -20.711  0.112E+00  0.112E+00
 -20.710  0.112E+00  0.112E+00
 -20.709  0.112E+00  0.112E+00
 -20.708  0.112E+00  0.112E+00
 -20.707  0.112E+00  0.112E+00
 -20.706  0.112E+00  0.112E+00
 -20.705  0.112E+00  0.112E+00
 -20.704  0.115E+00  0.115E+00
 -20.703  0.119E+00  0.119E+00
 -20.702  0.122E+00  0.122E+00
 -20.701  0.124E+00  0.124E+00
 -20.700  0.123E+00  0.123E+00
 -20.699  0.123E+00  0.123E+00
 -20.698  0.123E+00  0.123E+00
 -20.697  0.123E+00  0.123E+00
 -20.696  0.122E+00  0.122E+00
 -20.695  0.122E+00  0.122E+00
 -20.694  0.122E+00  0.122E+00
 -20.693  0.122E+00  0.122E+00
 -20.692  0.121E+00  0.121E+00
 -20.691  0.121E+00  0.121E+00
 -20.690  0.121E+00  0.121E+00
 -20.689  0.121E+00  0.121E+00
 -20.688  0.120E+00  0.120E+00
 -20.687  0.120E+00  0.120E+00
 -20.686  0.533E+00  0.533E+00
 -20.685  0.112E+00  0.112E+00
 -20.684  0.112E+00  0.112E+00
 -20.683  0.111E+00  0.111E+00
 -20.682  0.111E+00  0.111E+00
 -20.681  0.123E+00  0.123E+00
 -20.680  0.138E+00  0.138E+00
 -20.679  0.154E+00  0.154E+00
 -20.678  0.171E+00  0.171E+00
 -20.677  0.189E+00  0.189E+00
 -20.676  0.105E+00  0.105E+00
 -20.675  0.105E+00  0.105E+00
 -20.674  0.105E+00  0.105E+00
 -20.673  0.105E+00  0.105E+00
 -20.672  0.105E+00  0.105E+00
 -20.671  0.104E+00  0.104E+00
 -20.670  0.104E+00  0.104E+00
 -20.669  0.104E+00  0.104E+00
 -20.668  0.104E+00  0.104E+00
 -20.667  0.104E+00  0.104E+00
 -20.666  0.104E+00  0.104E+00
 -20.665  0.104E+00  0.104E+00
 -20.664  0.105E+00  0.105E+00
 -20.663  0.105E+00  0.105E+00
 -20.662  0.105E+00  0.105E+00
 -20.661  0.105E+00  0.105E+00
 -20.660  0.106E+00  0.106E+00
 -20.659  0.106E+00  0.106E+00
 -20.658  0.106E+00  0.106E+00
 -20.657  0.107E+00  0.107E+00
 -20.656  0.107E+00  0.107E+00
 -20.655  0.107E+00  0.107E+00
 -20.654  0.107E+00  0.107E+00
 -20.653  0.106E+00  0.106E+00
 -20.652  0.104E+00  0.104E+00
 -20.651  0.102E+00  0.102E+00
 -20.650  0.100E+00  0.100E+00
 -20.649  0.984E-01  0.984E-01
 -20.648  0.965E-01  0.965E-01
 -20.647  0.953E-01  0.953E-01
 -20.646  0.948E-01  0.948E-01
 -20.645  0.943E-01  0.943E-01
 -20.644  0.938E-01  0.938E-01
 -20.643  0.932E-01  0.932E-01
 -20.642  0.926E-01  0.926E-01
 -20.641  0.919E-01  0.919E-01
 -20.640  0.912E-01  0.912E-01
 -20.639  0.904E-01  0.904E-01
 -20.638  0.878E-01  0.878E-01
 -20.637  0.924E-01  0.924E-01
 -20.636  0.912E-01  0.912E-01
 -20.635  0.901E-01  0.901E-01
 -20.634  0.888E-01  0.888E-01
 -20.633  0.876E-01  0.876E-01
 -20.632  0.864E-01  0.864E-01
 -20.631  0.851E-01  0.851E-01
 -20.630  0.837E-01  0.837E-01
 -20.629  0.824E-01  0.824E-01
 -20.628  0.603E+00  0.603E+00
 -20.627  0.927E-01  0.927E-01
 -20.626  0.958E-01  0.958E-01
 -20.625  0.988E-01  0.988E-01
 -20.624  0.102E+00  0.102E+00
 -20.623  0.105E+00  0.105E+00
 -20.622  0.108E+00  0.108E+00
 -20.621  0.110E+00  0.110E+00
 -20.620  0.111E+00  0.111E+00
 -20.619  0.111E+00  0.111E+00
 -20.618  0.110E+00  0.110E+00
 -20.617  0.111E+00  0.111E+00
 -20.616  0.111E+00  0.111E+00
 -20.615  0.110E+00  0.110E+00
 -20.614  0.110E+00  0.110E+00
 -20.613  0.110E+00  0.110E+00
 -20.612  0.113E+00  0.113E+00
 -20.611  0.118E+00  0.118E+00
 -20.610  0.123E+00  0.123E+00
 -20.609  0.128E+00  0.128E+00
 -20.608  0.132E+00  0.132E+00
 -20.607  0.137E+00  0.137E+00
 -20.606  0.142E+00  0.142E+00
 -20.605  0.147E+00  0.147E+00
 -20.604  0.152E+00  0.152E+00
 -20.603  0.157E+00  0.157E+00
 -20.602  0.173E+00  0.173E+00
 -20.601  0.190E+00  0.190E+00
 -20.600  0.206E+00  0.206E+00
 -20.599  0.220E+00  0.220E+00
 -20.598  0.234E+00  0.234E+00
 -20.597  0.246E+00  0.246E+00
 -20.596  0.256E+00  0.256E+00
 -20.595  0.262E+00  0.262E+00
 -20.594  0.252E+00  0.252E+00
 -20.593  0.240E+00  0.240E+00
 -20.592  0.226E+00  0.226E+00
 -20.591  0.210E+00  0.210E+00
 -20.590  0.192E+00  0.192E+00
 -20.589  0.173E+00  0.173E+00
 -20.588  0.155E+00  0.155E+00
 -20.587  0.151E+00  0.151E+00
 -20.586  0.146E+00  0.146E+00
 -20.585  0.142E+00  0.142E+00
 -20.584  0.138E+00  0.138E+00
 -20.583  0.133E+00  0.133E+00
 -20.582  0.129E+00  0.129E+00
 -20.581  0.124E+00  0.124E+00
 -20.580  0.119E+00  0.119E+00
 -20.579  0.132E+00  0.132E+00
 -20.578  0.125E+00  0.125E+00
 -20.577  0.117E+00  0.117E+00
 -20.576  0.109E+00  0.109E+00
 -20.575  0.101E+00  0.101E+00
 -20.574  0.926E-01  0.926E-01
 -20.573  0.841E-01  0.841E-01
 -20.572  0.755E-01  0.755E-01
 -20.571  0.690E-01  0.690E-01
 -20.570  0.643E-01  0.643E-01
 -20.569  0.661E-01  0.661E-01
 -20.568  0.662E-01  0.662E-01
 -20.567  0.671E-01  0.671E-01
 -20.566  0.662E-01  0.662E-01
 -20.565  0.627E-01  0.627E-01
 -20.564  0.634E-01  0.634E-01
 -20.563  0.819E-01  0.819E-01
 -20.562  0.102E+00  0.102E+00
 -20.561  0.123E+00  0.123E+00
 -20.560  0.145E+00  0.145E+00
 -20.559  0.725E-01  0.725E-01
 -20.558  0.695E-01  0.695E-01
 -20.557  0.666E-01  0.666E-01
 -20.556  0.637E-01  0.637E-01
 -20.555  0.608E-01  0.608E-01
 -20.554  0.579E-01  0.579E-01
 -20.553  0.551E-01  0.551E-01
 -20.552  0.522E-01  0.522E-01
 -20.551  0.494E-01  0.494E-01
 -20.550  0.467E-01  0.467E-01
 -20.549  0.478E-01  0.478E-01
 -20.548  0.516E-01  0.516E-01
 -20.547  0.555E-01  0.555E-01
 -20.546  0.594E-01  0.594E-01
 -20.545  0.635E-01  0.635E-01
 -20.544  0.711E-01  0.711E-01
 -20.543  0.799E-01  0.799E-01
 -20.542  0.887E-01  0.887E-01
 -20.541  0.978E-01  0.978E-01
 -20.540  0.107E+00  0.107E+00
 -20.539  0.132E+00  0.132E+00
 -20.538  0.139E+00  0.139E+00
 -20.537  0.146E+00  0.146E+00
 -20.536  0.145E+00  0.145E+00
 -20.535  0.139E+00  0.139E+00
 -20.534  0.134E+00  0.134E+00
 -20.533  0.129E+00  0.129E+00
 -20.532  0.125E+00  0.125E+00
 -20.531  0.121E+00  0.121E+00
 -20.530  0.117E+00  0.117E+00
 -20.529  0.114E+00  0.114E+00
 -20.528  0.112E+00  0.112E+00
 -20.527  0.110E+00  0.110E+00
 -20.526  0.108E+00  0.108E+00
 -20.525  0.107E+00  0.107E+00
 -20.524  0.105E+00  0.105E+00
 -20.523  0.103E+00  0.103E+00
 -20.522  0.102E+00  0.102E+00
 -20.521  0.996E-01  0.996E-01
 -20.520  0.957E-01  0.957E-01
 -20.519  0.947E-01  0.947E-01
 -20.518  0.938E-01  0.938E-01
 -20.517  0.927E-01  0.927E-01
 -20.516  0.917E-01  0.917E-01
 -20.515  0.906E-01  0.906E-01
 -20.514  0.895E-01  0.895E-01
 -20.513  0.883E-01  0.883E-01
 -20.512  0.871E-01  0.871E-01
 -20.511  0.859E-01  0.859E-01
 -20.510  0.846E-01  0.846E-01
 -20.509  0.831E-01  0.831E-01
 -20.508  0.819E-01  0.819E-01
 -20.507  0.138E+00  0.138E+00
 -20.506  0.274E+00  0.274E+00
 -20.505  0.373E+00  0.373E+00
 -20.504  0.351E+00  0.351E+00
 -20.503  0.328E+00  0.328E+00
 -20.502  0.308E+00  0.308E+00
 -20.501  0.292E+00  0.292E+00
 -20.500  0.257E+00  0.257E+00
 -20.499  0.231E+00  0.231E+00
 -20.498  0.201E+00  0.201E+00
 -20.497  0.169E+00  0.169E+00
 -20.496  0.155E+00  0.155E+00
 -20.495  0.149E+00  0.149E+00
 -20.494  0.145E+00  0.145E+00
 -20.493  0.142E+00  0.142E+00
 -20.492  0.139E+00  0.139E+00
 -20.491  0.137E+00  0.137E+00
 -20.490  0.136E+00  0.136E+00
 -20.489  0.135E+00  0.135E+00
 -20.488  0.134E+00  0.134E+00
 -20.487  0.132E+00  0.132E+00
 -20.486  0.131E+00  0.131E+00
 -20.485  0.130E+00  0.130E+00
 -20.484  0.129E+00  0.129E+00
 -20.483  0.128E+00  0.128E+00
 -20.482  0.127E+00  0.127E+00
 -20.481  0.104E+00  0.104E+00
 -20.480  0.102E+00  0.102E+00
 -20.479  0.101E+00  0.101E+00
 -20.478  0.987E-01  0.987E-01
 -20.477  0.971E-01  0.971E-01
 -20.476  0.955E-01  0.955E-01
 -20.475  0.940E-01  0.940E-01
 -20.474  0.925E-01  0.925E-01
 -20.473  0.911E-01  0.911E-01
 -20.472  0.898E-01  0.898E-01
 -20.471  0.838E-01  0.838E-01
 -20.470  0.832E-01  0.832E-01
 -20.469  0.826E-01  0.826E-01
 -20.468  0.821E-01  0.821E-01
 -20.467  0.815E-01  0.815E-01
 -20.466  0.810E-01  0.810E-01
 -20.465  0.819E-01  0.819E-01
 -20.464  0.834E-01  0.834E-01
 -20.463  0.849E-01  0.849E-01
 -20.462  0.864E-01  0.864E-01
 -20.461  0.880E-01  0.880E-01
 -20.460  0.896E-01  0.896E-01
 -20.459  0.911E-01  0.911E-01
 -20.458  0.927E-01  0.927E-01
 -20.457  0.943E-01  0.943E-01
 -20.456  0.959E-01  0.959E-01
 -20.455  0.976E-01  0.976E-01
 -20.454  0.992E-01  0.992E-01
 -20.453  0.101E+00  0.101E+00
 -20.452  0.103E+00  0.103E+00
 -20.451  0.104E+00  0.104E+00
 -20.450  0.105E+00  0.105E+00
 -20.449  0.107E+00  0.107E+00
 -20.448  0.108E+00  0.108E+00
 -20.447  0.110E+00  0.110E+00
 -20.446  0.111E+00  0.111E+00
 -20.445  0.113E+00  0.113E+00
 -20.444  0.114E+00  0.114E+00
 -20.443  0.116E+00  0.116E+00
 -20.442  0.119E+00  0.119E+00
 -20.441  0.132E+00  0.132E+00
 -20.440  0.140E+00  0.140E+00
 -20.439  0.143E+00  0.143E+00
 -20.438  0.143E+00  0.143E+00
 -20.437  0.142E+00  0.142E+00
 -20.436  0.139E+00  0.139E+00
 -20.435  0.135E+00  0.135E+00
 -20.434  0.129E+00  0.129E+00
 -20.433  0.123E+00  0.123E+00
 -20.432  0.117E+00  0.117E+00
 -20.431  0.149E+00  0.149E+00
 -20.430  0.148E+00  0.148E+00
 -20.429  0.146E+00  0.146E+00
 -20.428  0.144E+00  0.144E+00
 -20.427  0.144E+00  0.144E+00
 -20.426  0.147E+00  0.147E+00
 -20.425  0.150E+00  0.150E+00
 -20.424  0.153E+00  0.153E+00
 -20.423  0.157E+00  0.157E+00
 -20.422  0.190E+00  0.190E+00
 -20.421  0.185E+00  0.185E+00
 -20.420  0.180E+00  0.180E+00
 -20.419  0.175E+00  0.175E+00
 -20.418  0.170E+00  0.170E+00
 -20.417  0.165E+00  0.165E+00
 -20.416  0.160E+00  0.160E+00
 -20.415  0.155E+00  0.155E+00
 -20.414  0.150E+00  0.150E+00
 -20.413  0.145E+00  0.145E+00
 -20.412  0.141E+00  0.141E+00
 -20.411  0.136E+00  0.136E+00
 -20.410  0.132E+00  0.132E+00
 -20.409  0.128E+00  0.128E+00
 -20.408  0.125E+00  0.125E+00
 -20.407  0.123E+00  0.123E+00
 -20.406  0.122E+00  0.122E+00
 -20.405  0.120E+00  0.120E+00
 -20.404  0.119E+00  0.119E+00
 -20.403  0.117E+00  0.117E+00
 -20.402  0.133E+00  0.133E+00
 -20.401  0.130E+00  0.130E+00
 -20.400  0.127E+00  0.127E+00
 -20.399  0.123E+00  0.123E+00
 -20.398  0.120E+00  0.120E+00
 -20.397  0.117E+00  0.117E+00
 -20.396  0.114E+00  0.114E+00
 -20.395  0.111E+00  0.111E+00
 -20.394  0.110E+00  0.110E+00
 -20.393  0.906E-01  0.906E-01
 -20.392  0.884E-01  0.884E-01
 -20.391  0.870E-01  0.870E-01
 -20.390  0.861E-01  0.861E-01
 -20.389  0.853E-01  0.853E-01
 -20.388  0.846E-01  0.846E-01
 -20.387  0.847E-01  0.847E-01
 -20.386  0.850E-01  0.850E-01
 -20.385  0.853E-01  0.853E-01
 -20.384  0.858E-01  0.858E-01
 -20.383  0.863E-01  0.863E-01
 -20.382  0.869E-01  0.869E-01
 -20.381  0.876E-01  0.876E-01
 -20.380  0.883E-01  0.883E-01
 -20.379  0.892E-01  0.892E-01
 -20.378  0.901E-01  0.901E-01
 -20.377  0.911E-01  0.911E-01
 -20.376  0.921E-01  0.921E-01
 -20.375  0.932E-01  0.932E-01
 -20.374  0.937E-01  0.937E-01
 -20.373  0.928E-01  0.928E-01