# E (eV)   ldos(E)   pdos(E)   
 -21.338  0.000E+00  0.000E+00
 -21.337  0.157E+00  0.157E+00
 -21.336  0.134E+00  0.134E+00
 -21.335  0.147E+00  0.147E+00
 -21.334  0.160E+00  0.160E+00
 -21.333  0.172E+00  0.172E+00
 -21.332  0.155E+00  0.155E+00
 -21.331  0.148E+00  0.148E+00
 -21.330  0.152E+00  0.152E+00
 -21.329  0.157E+00  0.157E+00
 -21.328  0.162E+00  0.162E+00
 -21.327  0.166E+00  0.166E+00
 -21.326  0.155E+00  0.155E+00
 -21.325  0.154E+00  0.154E+00
 -21.324  0.153E+00  0.153E+00
 -21.323  0.153E+00  0.153E+00
 -21.322  0.156E+00  0.156E+00
 -21.321  0.158E+00  0.158E+00
 -21.320  0.160E+00  0.160E+00
 -21.319  0.163E+00  0.163E+00
 -21.318  0.163E+00  0.163E+00
 -21.317  0.157E+00  0.157E+00
 -21.316  0.155E+00  0.155E+00
 -21.315  0.156E+00  0.156E+00
 -21.314  0.156E+00  0.156E+00
 -21.313  0.157E+00  0.157E+00
 -21.312  0.157E+00  0.157E+00
 -21.311  0.159E+00  0.159E+00
 -21.310  0.160E+00  0.160E+00
 -21.309  0.162E+00  0.162E+00
 -21.308  0.163E+00  0.163E+00
 -21.307  0.165E+00  0.165E+00
 -21.306  0.160E+00  0.160E+00
 -21.305  0.159E+00  0.159E+00
 -21.304  0.158E+00  0.158E+00
 -21.303  0.158E+00  0.158E+00
 -21.302  0.159E+00  0.159E+00
 -21.301  0.160E+00  0.160E+00
 -21.300  0.161E+00  0.161E+00
 -21.299  0.163E+00  0.163E+00
 -21.298  0.164E+00  0.164E+00
 -21.297  0.165E+00  0.165E+00
 -21.296  0.167E+00  0.167E+00
 -21.295  0.169E+00  0.169E+00
 -21.294  0.172E+00  0.172E+00
 -21.293  0.172E+00  0.172E+00
 -21.292  0.172E+00  0.172E+00
 -21.291  0.176E+00  0.176E+00
 -21.290  0.180E+00  0.180E+00
 -21.289  0.185E+00  0.185E+00
 -21.288  0.190E+00  0.190E+00
 -21.287  0.308E+00  0.308E+00
 -21.286  0.286E+00  0.286E+00
 -21.285  0.262E+00  0.262E+00
 -21.284  0.235E+00  0.235E+00
 -21.283  0.206E+00  0.206E+00
 -21.282  0.173E+00  0.173E+00
 -21.281  0.141E+00  0.141E+00
 -21.280  0.134E+00  0.134E+00
 -21.279  0.127E+00  0.127E+00
 -21.278  0.119E+00  0.119E+00
 -21.277  0.388E+00  0.388E+00
 -21.276  0.649E-01  0.649E-01
 -21.275  0.701E-01  0.701E-01
 -21.274  0.753E-01  0.753E-01
 -21.273  0.806E-01  0.806E-01
 -21.272  0.859E-01  0.859E-01
 -21.271  0.102E+00  0.102E+00
 -21.270  0.129E+00  0.129E+00
 -21.269  0.161E+00  0.161E+00
 -21.268  0.198E+00  0.198E+00
 -21.267  0.120E+00  0.120E+00
 -21.266  0.120E+00  0.120E+00
 -21.265  0.118E+00  0.118E+00
 -21.264  0.116E+00  0.116E+00
 -21.263  0.113E+00  0.113E+00
 -21.262  0.110E+00  0.110E+00
 -21.261  0.115E+00  0.115E+00
 -21.260  0.138E+00  0.138E+00
 -21.259  0.198E+00  0.198E+00
 -21.258  0.295E+00  0.295E+00
 -21.257  0.128E+00  0.128E+00
 -21.256  0.128E+00  0.128E+00
 -21.255  0.128E+00  0.128E+00
 -21.254  0.127E+00  0.127E+00
 -21.253  0.127E+00  0.127E+00
 -21.252  0.127E+00  0.127E+00
 -21.251  0.127E+00  0.127E+00
 -21.250  0.128E+00  0.128E+00
 -21.249  0.128E+00  0.128E+00
 -21.248  0.129E+00  0.129E+00
 -21.247  0.130E+00  0.130E+00
 -21.246  0.130E+00  0.130E+00
 -21.245  0.131E+00  0.131E+00
 -21.244  0.132E+00  0.132E+00
 -21.243  0.134E+00  0.134E+00
 -21.242  0.135E+00  0.135E+00
 -21.241  0.137E+00  0.137E+00
 -21.240  0.139E+00  0.139E+00
 -21.239  0.140E+00  0.140E+00
 -21.238  0.142E+00  0.142E+00
 -21.237  0.177E+00  0.177E+00
 -21.236  0.168E+00  0.168E+00
 -21.235  0.162E+00  0.162E+00
 -21.234  0.157E+00  0.157E+00
 -21.233  0.153E+00  0.153E+00
 -21.232  0.150E+00  0.150E+00
 -21.231  0.151E+00  0.151E+00
 -21.230  0.152E+00  0.152E+00
 -21.229  0.153E+00  0.153E+00
 -21.228  0.153E+00  0.153E+00
 -21.227  0.121E+00  0.121E+00
 -21.226  0.122E+00  0.122E+00
 -21.225  0.123E+00  0.123E+00
 -21.224  0.124E+00  0.124E+00
 -21.223  0.125E+00  0.125E+00
 -21.222  0.127E+00  0.127E+00
 -21.221  0.128E+00  0.128E+00
 -21.220  0.130E+00  0.130E+00
 -21.219  0.131E+00  0.131E+00
 -21.218  0.133E+00  0.133E+00
 -21.217  0.134E+00  0.134E+00
 -21.216  0.136E+00  0.136E+00
 -21.215  0.137E+00  0.137E+00
 -21.214  0.138E+00  0.138E+00
 -21.213  0.138E+00  0.138E+00
 -21.212  0.138E+00  0.138E+00
 -21.211  0.138E+00  0.138E+00
 -21.210  0.138E+00  0.138E+00
 -21.209  0.138E+00  0.138E+00
 -21.208  0.138E+00  0.138E+00
 -21.207  0.154E+00  0.154E+00
 -21.206  0.151E+00  0.151E+00
 -21.205  0.148E+00  0.148E+00
 -21.204  0.146E+00  0.146E+00
 -21.203  0.143E+00  0.143E+00
 -21.202  0.141E+00  0.141E+00
 -21.201  0.141E+00  0.141E+00
 -21.200  0.140E+00  0.140E+00
 -21.199  0.140E+00  0.140E+00
 -21.198  0.140E+00  0.140E+00
 -21.197  0.140E+00  0.140E+00
 -21.196  0.140E+00  0.140E+00
 -21.195  0.141E+00  0.141E+00
 -21.194  0.141E+00  0.141E+00
 -21.193  0.142E+00  0.142E+00
 -21.192  0.142E+00  0.142E+00
 -21.191  0.142E+00  0.142E+00
 -21.190  0.143E+00  0.143E+00
 -21.189  0.143E+00  0.143E+00
 -21.188  0.125E+00  0.125E+00
 -21.187  0.125E+00  0.125E+00
 -21.186  0.125E+00  0.125E+00
 -21.185  0.124E+00  0.124E+00
 -21.184  0.124E+00  0.124E+00
 -21.183  0.123E+00  0.123E+00
 -21.182  0.122E+00  0.122E+00
 -21.181  0.122E+00  0.122E+00
 -21.180  0.121E+00  0.121E+00
 -21.179  0.120E+00  0.120E+00
 -21.178  0.119E+00  0.119E+00
 -21.177  0.118E+00  0.118E+00
 -21.176  0.116E+00  0.116E+00
 -21.175  0.115E+00  0.115E+00
 -21.174  0.113E+00  0.113E+00
 -21.173  0.112E+00  0.112E+00
 -21.172  0.110E+00  0.110E+00
 -21.171  0.108E+00  0.108E+00
 -21.170  0.106E+00  0.106E+00
 -21.169  0.103E+00  0.103E+00
 -21.168  0.111E+00  0.111E+00
 -21.167  0.107E+00  0.107E+00
 -21.166  0.103E+00  0.103E+00
 -21.165  0.991E-01  0.991E-01
 -21.164  0.952E-01  0.952E-01
 -21.163  0.914E-01  0.914E-01
 -21.162  0.874E-01  0.874E-01
 -21.161  0.833E-01  0.833E-01
 -21.160  0.772E-01  0.772E-01
 -21.159  0.850E-01  0.850E-01
 -21.158  0.109E+00  0.109E+00
 -21.157  0.118E+00  0.118E+00
 -21.156  0.123E+00  0.123E+00
 -21.155  0.129E+00  0.129E+00
 -21.154  0.135E+00  0.135E+00
 -21.153  0.140E+00  0.140E+00
 -21.152  0.143E+00  0.143E+00
 -21.151  0.145E+00  0.145E+00
 -21.150  0.147E+00  0.147E+00
 -21.149  0.150E+00  0.150E+00
 -21.148  0.152E+00  0.152E+00
 -21.147  0.154E+00  0.154E+00
 -21.146  0.156E+00  0.156E+00
 -21.145  0.158E+00  0.158E+00
 -21.144  0.159E+00  0.159E+00
 -21.143  0.159E+00  0.159E+00
 -21.142  0.160E+00  0.160E+00
 -21.141  0.160E+00  0.160E+00
 -21.140  0.161E+00  0.161E+00
 -21.139  0.149E+00  0.149E+00
 -21.138  0.149E+00  0.149E+00
 -21.137  0.149E+00  0.149E+00
 -21.136  0.149E+00  0.149E+00
 -21.135  0.150E+00  0.150E+00
 -21.134  0.150E+00  0.150E+00
 -21.133  0.150E+00  0.150E+00
 -21.132  0.149E+00  0.149E+00
 -21.131  0.149E+00  0.149E+00
 -21.130  0.148E+00  0.148E+00
 -21.129  0.147E+00  0.147E+00
 -21.128  0.146E+00  0.146E+00
 -21.127  0.146E+00  0.146E+00
 -21.126  0.145E+00  0.145E+00
 -21.125  0.145E+00  0.145E+00
 -21.124  0.146E+00  0.146E+00
 -21.123  0.146E+00  0.146E+00
 -21.122  0.146E+00  0.146E+00
 -21.121  0.147E+00  0.147E+00
 -21.120  0.150E+00  0.150E+00
 -21.119  0.151E+00  0.151E+00
 -21.118  0.229E+00  0.229E+00
 -21.117  0.226E+00  0.226E+00
 -21.116  0.223E+00  0.223E+00
 -21.115  0.219E+00  0.219E+00
 -21.114  0.214E+00  0.214E+00
 -21.113  0.209E+00  0.209E+00
 -21.112  0.202E+00  0.202E+00
 -21.111  0.195E+00  0.195E+00
 -21.110  0.188E+00  0.188E+00
 -21.109  0.225E+00  0.225E+00
 -21.108  0.211E+00  0.211E+00
 -21.107  0.196E+00  0.196E+00
 -21.106  0.179E+00  0.179E+00
 -21.105  0.162E+00  0.162E+00
 -21.104  0.144E+00  0.144E+00
 -21.103  0.135E+00  0.135E+00
 -21.102  0.125E+00  0.125E+00
 -21.101  0.116E+00  0.116E+00
 -21.100  0.107E+00  0.107E+00
 -21.099  0.971E-01  0.971E-01
 -21.098  0.874E-01  0.874E-01
 -21.097  0.868E-01  0.868E-01
 -21.096  0.862E-01  0.862E-01
 -21.095  0.854E-01  0.854E-01
 -21.094  0.868E-01  0.868E-01
 -21.093  0.901E-01  0.901E-01
 -21.092  0.935E-01  0.935E-01
 -21.091  0.969E-01  0.969E-01
 -21.090  0.100E+00  0.100E+00
 -21.089  0.166E+00  0.166E+00
 -21.088  0.158E+00  0.158E+00
 -21.087  0.148E+00  0.148E+00
 -21.086  0.138E+00  0.138E+00
 -21.085  0.127E+00  0.127E+00
 -21.084  0.115E+00  0.115E+00
 -21.083  0.106E+00  0.106E+00
 -21.082  0.110E+00  0.110E+00
 -21.081  0.114E+00  0.114E+00
 -21.080  0.112E+00  0.112E+00
 -21.079  0.968E-01  0.968E-01
 -21.078  0.103E+00  0.103E+00
 -21.077  0.110E+00  0.110E+00
 -21.076  0.117E+00  0.117E+00
 -21.075  0.124E+00  0.124E+00
 -21.074  0.132E+00  0.132E+00
 -21.073  0.140E+00  0.140E+00
 -21.072  0.148E+00  0.148E+00
 -21.071  0.156E+00  0.156E+00
 -21.070  0.165E+00  0.165E+00
 -21.069  0.116E+00  0.116E+00
 -21.068  0.116E+00  0.116E+00
 -21.067  0.117E+00  0.117E+00
 -21.066  0.118E+00  0.118E+00
 -21.065  0.118E+00  0.118E+00
 -21.064  0.119E+00  0.119E+00
 -21.063  0.120E+00  0.120E+00
 -21.062  0.121E+00  0.121E+00
 -21.061  0.121E+00  0.121E+00
 -21.060  0.336E+00  0.336E+00
 -21.059  0.180E+00  0.180E+00
 -21.058  0.111E+00  0.111E+00
 -21.057  0.111E+00  0.111E+00
 -21.056  0.112E+00  0.112E+00
 -21.055  0.114E+00  0.114E+00
 -21.054  0.129E+00  0.129E+00
 -21.053  0.146E+00  0.146E+00
 -21.052  0.166E+00  0.166E+00
 -21.051  0.187E+00  0.187E+00
 -21.050  0.119E+00  0.119E+00
 -21.049  0.119E+00  0.119E+00
 -21.048  0.118E+00  0.118E+00
 -21.047  0.118E+00  0.118E+00
 -21.046  0.117E+00  0.117E+00
 -21.045  0.117E+00  0.117E+00
 -21.044  0.117E+00  0.117E+00
 -21.043  0.116E+00  0.116E+00
 -21.042  0.116E+00  0.116E+00
 -21.041  0.116E+00  0.116E+00
 -21.040  0.116E+00  0.116E+00
 -21.039  0.116E+00  0.116E+00
 -21.038  0.116E+00  0.116E+00
 -21.037  0.116E+00  0.116E+00
 -21.036  0.116E+00  0.116E+00
 -21.035  0.117E+00  0.117E+00
 -21.034  0.117E+00  0.117E+00
 -21.033  0.118E+00  0.118E+00
 -21.032  0.118E+00  0.118E+00
 -21.031  0.119E+00  0.119E+00
 -21.030  0.120E+00  0.120E+00
 -21.029  0.120E+00  0.120E+00
 -21.028  0.121E+00  0.121E+00
 -21.027  0.122E+00  0.122E+00
 -21.026  0.122E+00  0.122E+00
 -21.025  0.123E+00  0.123E+00
 -21.024  0.124E+00  0.124E+00
 -21.023  0.255E+00  0.255E+00
 -21.022  0.366E+00  0.366E+00
 -21.021  0.384E+00  0.384E+00
 -21.020  0.125E+00  0.125E+00
 -21.019  0.124E+00  0.124E+00
 -21.018  0.124E+00  0.124E+00
 -21.017  0.124E+00  0.124E+00
 -21.016  0.124E+00  0.124E+00
 -21.015  0.124E+00  0.124E+00
 -21.014  0.124E+00  0.124E+00
 -21.013  0.123E+00  0.123E+00
 -21.012  0.123E+00  0.123E+00
 -21.011  0.118E+00  0.118E+00
 -21.010  0.118E+00  0.118E+00
 -21.009  0.118E+00  0.118E+00
 -21.008  0.119E+00  0.119E+00
 -21.007  0.119E+00  0.119E+00
 -21.006  0.119E+00  0.119E+00
 -21.005  0.119E+00  0.119E+00
 -21.004  0.120E+00  0.120E+00
 -21.003  0.120E+00  0.120E+00
 -21.002  0.120E+00  0.120E+00
 -21.001  0.121E+00  0.121E+00
 -21.000  0.121E+00  0.121E+00
 -20.999  0.121E+00  0.121E+00
 -20.998  0.122E+00  0.122E+00
 -20.997  0.122E+00  0.122E+00
 -20.996  0.123E+00  0.123E+00
 -20.995  0.123E+00  0.123E+00
 -20.994  0.124E+00  0.124E+00
 -20.993  0.124E+00  0.124E+00
 -20.992  0.124E+00  0.124E+00
 -20.991  0.125E+00  0.125E+00
 -20.990  0.128E+00  0.128E+00
 -20.989  0.128E+00  0.128E+00
 -20.988  0.128E+00  0.128E+00
 -20.987  0.129E+00  0.129E+00
 -20.986  0.129E+00  0.129E+00
 -20.985  0.129E+00  0.129E+00
 -20.984  0.129E+00  0.129E+00
 -20.983  0.130E+00  0.130E+00
 -20.982  0.130E+00  0.130E+00
 -20.981  0.183E+00  0.183E+00
 -20.980  0.170E+00  0.170E+00
 -20.979  0.161E+00  0.161E+00
 -20.978  0.154E+00  0.154E+00
 -20.977  0.149E+00  0.149E+00
 -20.976  0.147E+00  0.147E+00
 -20.975  0.150E+00  0.150E+00
 -20.974  0.152E+00  0.152E+00
 -20.973  0.154E+00  0.154E+00
 -20.972  0.156E+00  0.156E+00
 -20.971  0.121E+00  0.121E+00
 -20.970  0.121E+00  0.121E+00
 -20.969  0.121E+00  0.121E+00
 -20.968  0.121E+00  0.121E+00
 -20.967  0.120E+00  0.120E+00
 -20.966  0.120E+00  0.120E+00
 -20.965  0.120E+00  0.120E+00
 -20.964  0.120E+00  0.120E+00
 -20.963  0.120E+00  0.120E+00
 -20.962  0.120E+00  0.120E+00
 -20.961  0.120E+00  0.120E+00
 -20.960  0.122E+00  0.122E+00
 -20.959  0.124E+00  0.124E+00
 -20.958  0.126E+00  0.126E+00
 -20.957  0.127E+00  0.127E+00
 -20.956  0.129E+00  0.129E+00
 -20.955  0.130E+00  0.130E+00
 -20.954  0.131E+00  0.131E+00
 -20.953  0.133E+00  0.133E+00
 -20.952  0.134E+00  0.134E+00
 -20.951  0.135E+00  0.135E+00
 -20.950  0.136E+00  0.136E+00
 -20.949  0.137E+00  0.137E+00
 -20.948  0.141E+00  0.141E+00
 -20.947  0.146E+00  0.146E+00
 -20.946  0.151E+00  0.151E+00
 -20.945  0.157E+00  0.157E+00
 -20.944  0.162E+00  0.162E+00
 -20.943  0.167E+00  0.167E+00
 -20.942  0.172E+00  0.172E+00
 -20.941  0.177E+00  0.177E+00
 -20.940  0.183E+00  0.183E+00
 -20.939  0.188E+00  0.188E+00
 -20.938  0.245E+00  0.245E+00
 -20.937  0.300E+00  0.300E+00
 -20.936  0.266E+00  0.266E+00
 -20.935  0.230E+00  0.230E+00
 -20.934  0.193E+00  0.193E+00
 -20.933  0.155E+00  0.155E+00
 -20.932  0.911E-01  0.911E-01
 -20.931  0.874E-01  0.874E-01
 -20.930  0.824E-01  0.824E-01
 -20.929  0.761E-01  0.761E-01
 -20.928  0.687E-01  0.687E-01
 -20.927  0.601E-01  0.601E-01
 -20.926  0.504E-01  0.504E-01
 -20.925  0.394E-01  0.394E-01
 -20.924  0.279E-01  0.279E-01
 -20.923  0.280E-01  0.280E-01
 -20.922  0.373E-01  0.373E-01
 -20.921  0.465E-01  0.465E-01
 -20.920  0.549E-01  0.549E-01
 -20.919  0.625E-01  0.625E-01
 -20.918  0.693E-01  0.693E-01
 -20.917  0.754E-01  0.754E-01
 -20.916  0.808E-01  0.808E-01
 -20.915  0.854E-01  0.854E-01
 -20.914  0.892E-01  0.892E-01
 -20.913  0.922E-01  0.922E-01
 -20.912  0.694E-01  0.694E-01
 -20.911  0.756E-01  0.756E-01
 -20.910  0.818E-01  0.818E-01
 -20.909  0.880E-01  0.880E-01
 -20.908  0.944E-01  0.944E-01
 -20.907  0.101E+00  0.101E+00
 -20.906  0.107E+00  0.107E+00
 -20.905  0.114E+00  0.114E+00
 -20.904  0.120E+00  0.120E+00
 -20.903  0.127E+00  0.127E+00
 -20.902  0.133E+00  0.133E+00
 -20.901  0.140E+00  0.140E+00
 -20.900  0.147E+00  0.147E+00
 -20.899  0.154E+00  0.154E+00
 -20.898  0.161E+00  0.161E+00
 -20.897  0.150E+00  0.150E+00
 -20.896  0.139E+00  0.139E+00
 -20.895  0.129E+00  0.129E+00
 -20.894  0.119E+00  0.119E+00
 -20.893  0.110E+00  0.110E+00
 -20.892  0.137E+00  0.137E+00
 -20.891  0.137E+00  0.137E+00
 -20.890  0.138E+00  0.138E+00
 -20.889  0.141E+00  0.141E+00
 -20.888  0.146E+00  0.146E+00
 -20.887  0.156E+00  0.156E+00
 -20.886  0.167E+00  0.167E+00
 -20.885  0.181E+00  0.181E+00
 -20.884  0.196E+00  0.196E+00
 -20.883  0.213E+00  0.213E+00
 -20.882  0.209E+00  0.209E+00
 -20.881  0.198E+00  0.198E+00
 -20.880  0.187E+00  0.187E+00
 -20.879  0.176E+00  0.176E+00
 -20.878  0.166E+00  0.166E+00
 -20.877  0.157E+00  0.157E+00
 -20.876  0.148E+00  0.148E+00
 -20.875  0.140E+00  0.140E+00
 -20.874  0.133E+00  0.133E+00
 -20.873  0.143E+00  0.143E+00
 -20.872  0.141E+00  0.141E+00
 -20.871  0.138E+00  0.138E+00
 -20.870  0.135E+00  0.135E+00
 -20.869  0.133E+00  0.133E+00
 -20.868  0.130E+00  0.130E+00
 -20.867  0.128E+00  0.128E+00
 -20.866  0.125E+00  0.125E+00
 -20.865  0.122E+00  0.122E+00
 -20.864  0.120E+00  0.120E+00
 -20.863  0.118E+00  0.118E+00
 -20.862  0.118E+00  0.118E+00
 -20.861  0.118E+00  0.118E+00
 -20.860  0.119E+00  0.119E+00
 -20.859  0.119E+00  0.119E+00
 -20.858  0.988E-01  0.988E-01
 -20.857  0.100E+00  0.100E+00
 -20.856  0.102E+00  0.102E+00
 -20.855  0.104E+00  0.104E+00
 -20.854  0.105E+00  0.105E+00
 -20.853  0.107E+00  0.107E+00
 -20.852  0.109E+00  0.109E+00
 -20.851  0.110E+00  0.110E+00
 -20.850  0.112E+00  0.112E+00
 -20.849  0.114E+00  0.114E+00
 -20.848  0.115E+00  0.115E+00
 -20.847  0.117E+00  0.117E+00
 -20.846  0.119E+00  0.119E+00
 -20.845  0.121E+00  0.121E+00
 -20.844  0.105E+00  0.105E+00
 -20.843  0.106E+00  0.106E+00
 -20.842  0.107E+00  0.107E+00
 -20.841  0.109E+00  0.109E+00
 -20.840  0.110E+00  0.110E+00
 -20.839  0.112E+00  0.112E+00
 -20.838  0.113E+00  0.113E+00
 -20.837  0.112E+00  0.112E+00
 -20.836  0.111E+00  0.111E+00
 -20.835  0.110E+00  0.110E+00
 -20.834  0.109E+00  0.109E+00
 -20.833  0.138E+00  0.138E+00
 -20.832  0.144E+00  0.144E+00
 -20.831  0.151E+00  0.151E+00
 -20.830  0.151E+00  0.151E+00
 -20.829  0.148E+00  0.148E+00
 -20.828  0.145E+00  0.145E+00
 -20.827  0.141E+00  0.141E+00
 -20.826  0.138E+00  0.138E+00
 -20.825  0.135E+00  0.135E+00
 -20.824  0.131E+00  0.131E+00
 -20.823  0.132E+00  0.132E+00
 -20.822  0.130E+00  0.130E+00
 -20.821  0.128E+00  0.128E+00
 -20.820  0.126E+00  0.126E+00
 -20.819  0.125E+00  0.125E+00
 -20.818  0.126E+00  0.126E+00
 -20.817  0.128E+00  0.128E+00
 -20.816  0.130E+00  0.130E+00
 -20.815  0.131E+00  0.131E+00
 -20.814  0.133E+00  0.133E+00
 -20.813  0.134E+00  0.134E+00
 -20.812  0.135E+00  0.135E+00
 -20.811  0.136E+00  0.136E+00
 -20.810  0.137E+00  0.137E+00
 -20.809  0.138E+00  0.138E+00
 -20.808  0.139E+00  0.139E+00
 -20.807  0.141E+00  0.141E+00
 -20.806  0.142E+00  0.142E+00
 -20.805  0.144E+00  0.144E+00
 -20.804  0.330E+00  0.330E+00
 -20.803  0.190E+00  0.190E+00
 -20.802  0.139E+00  0.139E+00
 -20.801  0.134E+00  0.134E+00
 -20.800  0.130E+00  0.130E+00
 -20.799  0.126E+00  0.126E+00
 -20.798  0.123E+00  0.123E+00
 -20.797  0.120E+00  0.120E+00
 -20.796  0.117E+00  0.117E+00
 -20.795  0.115E+00  0.115E+00
 -20.794  0.112E+00  0.112E+00
 -20.793  0.110E+00  0.110E+00
 -20.792  0.108E+00  0.108E+00
 -20.791  0.106E+00  0.106E+00
 -20.790  0.104E+00  0.104E+00
 -20.789  0.103E+00  0.103E+00
 -20.788  0.102E+00  0.102E+00
 -20.787  0.104E+00  0.104E+00
 -20.786  0.106E+00  0.106E+00
 -20.785  0.108E+00  0.108E+00
 -20.784  0.110E+00  0.110E+00
 -20.783  0.112E+00  0.112E+00
 -20.782  0.115E+00  0.115E+00
 -20.781  0.117E+00  0.117E+00
 -20.780  0.121E+00  0.121E+00
 -20.779  0.124E+00  0.124E+00
 -20.778  0.127E+00  0.127E+00
 -20.777  0.131E+00  0.131E+00
 -20.776  0.135E+00  0.135E+00
 -20.775  0.177E+00  0.177E+00
 -20.774  0.151E+00  0.151E+00
 -20.773  0.150E+00  0.150E+00
 -20.772  0.149E+00  0.149E+00
 -20.771  0.147E+00  0.147E+00
 -20.770  0.146E+00  0.146E+00
 -20.769  0.145E+00  0.145E+00
 -20.768  0.143E+00  0.143E+00
 -20.767  0.142E+00  0.142E+00
 -20.766  0.141E+00  0.141E+00
 -20.765  0.162E+00  0.162E+00
 -20.764  0.147E+00  0.147E+00
 -20.763  0.138E+00  0.138E+00
 -20.762  0.130E+00  0.130E+00
 -20.761  0.122E+00  0.122E+00
 -20.760  0.116E+00  0.116E+00
 -20.759  0.116E+00  0.116E+00
 -20.758  0.116E+00  0.116E+00
 -20.757  0.116E+00  0.116E+00
 -20.756  0.116E+00  0.116E+00
 -20.755  0.115E+00  0.115E+00
 -20.754  0.115E+00  0.115E+00
 -20.753  0.115E+00  0.115E+00
 -20.752  0.115E+00  0.115E+00
 -20.751  0.115E+00  0.115E+00
 -20.750  0.115E+00  0.115E+00
 -20.749  0.115E+00  0.115E+00
 -20.748  0.115E+00  0.115E+00
 -20.747  0.115E+00  0.115E+00
 -20.746  0.115E+00  0.115E+00
 -20.745  0.110E+00  0.110E+00
 -20.744  0.109E+00  0.109E+00
 -20.743  0.108E+00  0.108E+00
 -20.742  0.108E+00  0.108E+00
 -20.741  0.107E+00  0.107E+00
 -20.740  0.107E+00  0.107E+00
 -20.739  0.108E+00  0.108E+00
 -20.738  0.108E+00  0.108E+00
 -20.737  0.109E+00  0.109E+00
 -20.736  0.109E+00  0.109E+00
 -20.735  0.163E+00  0.163E+00
 -20.734  0.153E+00  0.153E+00
 -20.733  0.143E+00  0.143E+00
 -20.732  0.133E+00  0.133E+00
 -20.731  0.122E+00  0.122E+00
 -20.730  0.111E+00  0.111E+00
 -20.729  0.104E+00  0.104E+00
 -20.728  0.105E+00  0.105E+00
 -20.727  0.105E+00  0.105E+00
 -20.726  0.106E+00  0.106E+00
 -20.725  0.118E+00  0.118E+00
 -20.724  0.123E+00  0.123E+00
 -20.723  0.128E+00  0.128E+00
 -20.722  0.133E+00  0.133E+00
 -20.721  0.138E+00  0.138E+00
 -20.720  0.143E+00  0.143E+00
 -20.719  0.148E+00  0.148E+00
 -20.718  0.154E+00  0.154E+00
 -20.717  0.160E+00  0.160E+00
 -20.716  0.121E+00  0.121E+00
 -20.715  0.118E+00  0.118E+00
 -20.714  0.114E+00  0.114E+00
 -20.713  0.111E+00  0.111E+00
 -20.712  0.111E+00  0.111E+00
 -20.711  0.111E+00  0.111E+00
 -20.710  0.111E+00  0.111E+00
 -20.709  0.111E+00  0.111E+00
 -20.708  0.111E+00  0.111E+00
 -20.707  0.111E+00  0.111E+00
 -20.706  0.111E+00  0.111E+00
 -20.705  0.111E+00  0.111E+00
 -20.704  0.114E+00  0.114E+00
 -20.703  0.117E+00  0.117E+00
 -20.702  0.121E+00  0.121E+00
 -20.701  0.122E+00  0.122E+00
 -20.700  0.122E+00  0.122E+00
 -20.699  0.122E+00  0.122E+00
 -20.698  0.121E+00  0.121E+00
 -20.697  0.121E+00  0.121E+00
 -20.696  0.121E+00  0.121E+00
 -20.695  0.121E+00  0.121E+00
 -20.694  0.120E+00  0.120E+00
 -20.693  0.120E+00  0.120E+00
 -20.692  0.120E+00  0.120E+00
 -20.691  0.120E+00  0.120E+00
 -20.690  0.119E+00  0.119E+00
 -20.689  0.119E+00  0.119E+00
 -20.688  0.119E+00  0.119E+00
 -20.687  0.119E+00  0.119E+00
 -20.686  0.508E+00  0.508E+00
 -20.685  0.111E+00  0.111E+00
 -20.684  0.111E+00  0.111E+00
 -20.683  0.111E+00  0.111E+00
 -20.682  0.110E+00  0.110E+00
 -20.681  0.122E+00  0.122E+00
 -20.680  0.137E+00  0.137E+00
 -20.679  0.153E+00  0.153E+00
 -20.678  0.170E+00  0.170E+00
 -20.677  0.188E+00  0.188E+00
 -20.676  0.106E+00  0.106E+00
 -20.675  0.106E+00  0.106E+00
 -20.674  0.106E+00  0.106E+00
 -20.673  0.106E+00  0.106E+00
 -20.672  0.106E+00  0.106E+00
 -20.671  0.106E+00  0.106E+00
 -20.670  0.106E+00  0.106E+00
 -20.669  0.106E+00  0.106E+00
 -20.668  0.106E+00  0.106E+00
 -20.667  0.106E+00  0.106E+00
 -20.666  0.106E+00  0.106E+00
 -20.665  0.107E+00  0.107E+00
 -20.664  0.107E+00  0.107E+00
 -20.663  0.108E+00  0.108E+00
 -20.662  0.108E+00  0.108E+00
 -20.661  0.109E+00  0.109E+00
 -20.660  0.109E+00  0.109E+00
 -20.659  0.110E+00  0.110E+00
 -20.658  0.110E+00  0.110E+00
 -20.657  0.111E+00  0.111E+00
 -20.656  0.111E+00  0.111E+00
 -20.655  0.112E+00  0.112E+00
 -20.654  0.112E+00  0.112E+00
 -20.653  0.111E+00  0.111E+00
 -20.652  0.109E+00  0.109E+00
 -20.651  0.108E+00  0.108E+00
 -20.650  0.106E+00  0.106E+00
 -20.649  0.105E+00  0.105E+00
 -20.648  0.103E+00  0.103E+00
 -20.647  0.102E+00  0.102E+00
 -20.646  0.102E+00  0.102E+00
 -20.645  0.102E+00  0.102E+00
 -20.644  0.102E+00  0.102E+00
 -20.643  0.102E+00  0.102E+00
 -20.642  0.102E+00  0.102E+00
 -20.641  0.102E+00  0.102E+00
 -20.640  0.102E+00  0.102E+00
 -20.639  0.102E+00  0.102E+00
 -20.638  0.997E-01  0.997E-01
 -20.637  0.105E+00  0.105E+00
 -20.636  0.105E+00  0.105E+00
 -20.635  0.104E+00  0.104E+00
 -20.634  0.104E+00  0.104E+00
 -20.633  0.103E+00  0.103E+00
 -20.632  0.103E+00  0.103E+00
 -20.631  0.107E+00  0.107E+00
 -20.630  0.121E+00  0.121E+00
 -20.629  0.146E+00  0.146E+00
 -20.628  0.475E+00  0.475E+00
 -20.627  0.105E+00  0.105E+00
 -20.626  0.106E+00  0.106E+00
 -20.625  0.108E+00  0.108E+00
 -20.624  0.110E+00  0.110E+00
 -20.623  0.111E+00  0.111E+00
 -20.622  0.113E+00  0.113E+00
 -20.621  0.115E+00  0.115E+00
 -20.620  0.116E+00  0.116E+00
 -20.619  0.117E+00  0.117E+00
 -20.618  0.117E+00  0.117E+00
 -20.617  0.120E+00  0.120E+00
 -20.616  0.121E+00  0.121E+00
 -20.615  0.121E+00  0.121E+00
 -20.614  0.120E+00  0.120E+00
 -20.613  0.119E+00  0.119E+00
 -20.612  0.121E+00  0.121E+00
 -20.611  0.124E+00  0.124E+00
 -20.610  0.127E+00  0.127E+00
 -20.609  0.130E+00  0.130E+00
 -20.608  0.133E+00  0.133E+00
 -20.607  0.136E+00  0.136E+00
 -20.606  0.139E+00  0.139E+00
 -20.605  0.142E+00  0.142E+00
 -20.604  0.145E+00  0.145E+00
 -20.603  0.148E+00  0.148E+00
 -20.602  0.160E+00  0.160E+00
 -20.601  0.172E+00  0.172E+00
 -20.600  0.184E+00  0.184E+00
 -20.599  0.196E+00  0.196E+00
 -20.598  0.206E+00  0.206E+00
 -20.597  0.216E+00  0.216E+00
 -20.596  0.226E+00  0.226E+00
 -20.595  0.231E+00  0.231E+00
 -20.594  0.220E+00  0.220E+00
 -20.593  0.209E+00  0.209E+00
 -20.592  0.197E+00  0.197E+00
 -20.591  0.184E+00  0.184E+00
 -20.590  0.170E+00  0.170E+00
 -20.589  0.155E+00  0.155E+00
 -20.588  0.140E+00  0.140E+00
 -20.587  0.137E+00  0.137E+00
 -20.586  0.133E+00  0.133E+00
 -20.585  0.130E+00  0.130E+00
 -20.584  0.126E+00  0.126E+00
 -20.583  0.122E+00  0.122E+00
 -20.582  0.118E+00  0.118E+00
 -20.581  0.114E+00  0.114E+00
 -20.580  0.110E+00  0.110E+00
 -20.579  0.124E+00  0.124E+00
 -20.578  0.117E+00  0.117E+00
 -20.577  0.109E+00  0.109E+00
 -20.576  0.102E+00  0.102E+00
 -20.575  0.947E-01  0.947E-01
 -20.574  0.876E-01  0.876E-01
 -20.573  0.804E-01  0.804E-01
 -20.572  0.731E-01  0.731E-01
 -20.571  0.672E-01  0.672E-01
 -20.570  0.624E-01  0.624E-01
 -20.569  0.698E-01  0.698E-01
 -20.568  0.675E-01  0.675E-01
 -20.567  0.669E-01  0.669E-01
 -20.566  0.652E-01  0.652E-01
 -20.565  0.615E-01  0.615E-01
 -20.564  0.621E-01  0.621E-01
 -20.563  0.798E-01  0.798E-01
 -20.562  0.990E-01  0.990E-01
 -20.561  0.120E+00  0.120E+00
 -20.560  0.142E+00  0.142E+00
 -20.559  0.719E-01  0.719E-01
 -20.558  0.693E-01  0.693E-01
 -20.557  0.667E-01  0.667E-01
 -20.556  0.641E-01  0.641E-01
 -20.555  0.615E-01  0.615E-01
 -20.554  0.589E-01  0.589E-01
 -20.553  0.563E-01  0.563E-01
 -20.552  0.537E-01  0.537E-01
 -20.551  0.512E-01  0.512E-01
 -20.550  0.486E-01  0.486E-01
 -20.549  0.506E-01  0.506E-01
 -20.548  0.554E-01  0.554E-01
 -20.547  0.601E-01  0.601E-01
 -20.546  0.648E-01  0.648E-01
 -20.545  0.696E-01  0.696E-01
 -20.544  0.778E-01  0.778E-01
 -20.543  0.871E-01  0.871E-01
 -20.542  0.965E-01  0.965E-01
 -20.541  0.106E+00  0.106E+00
 -20.540  0.115E+00  0.115E+00
 -20.539  0.141E+00  0.141E+00
 -20.538  0.148E+00  0.148E+00
 -20.537  0.155E+00  0.155E+00
 -20.536  0.155E+00  0.155E+00
 -20.535  0.150E+00  0.150E+00
 -20.534  0.145E+00  0.145E+00
 -20.533  0.140E+00  0.140E+00
 -20.532  0.136E+00  0.136E+00
 -20.531  0.132E+00  0.132E+00
 -20.530  0.128E+00  0.128E+00
 -20.529  0.124E+00  0.124E+00
 -20.528  0.120E+00  0.120E+00
 -20.527  0.117E+00  0.117E+00
 -20.526  0.114E+00  0.114E+00
 -20.525  0.112E+00  0.112E+00
 -20.524  0.110E+00  0.110E+00
 -20.523  0.109E+00  0.109E+00
 -20.522  0.107E+00  0.107E+00
 -20.521  0.106E+00  0.106E+00
 -20.520  0.102E+00  0.102E+00
 -20.519  0.102E+00  0.102E+00
 -20.518  0.101E+00  0.101E+00
 -20.517  0.101E+00  0.101E+00
 -20.516  0.999E-01  0.999E-01
 -20.515  0.992E-01  0.992E-01
 -20.514  0.984E-01  0.984E-01
 -20.513  0.976E-01  0.976E-01
 -20.512  0.968E-01  0.968E-01
 -20.511  0.959E-01  0.959E-01
 -20.510  0.951E-01  0.951E-01
 -20.509  0.900E-01  0.900E-01
 -20.508  0.850E-01  0.850E-01
 -20.507  0.122E+00  0.122E+00
 -20.506  0.225E+00  0.225E+00
 -20.505  0.313E+00  0.313E+00
 -20.504  0.301E+00  0.301E+00
 -20.503  0.287E+00  0.287E+00
 -20.502  0.274E+00  0.274E+00
 -20.501  0.262E+00  0.262E+00
 -20.500  0.227E+00  0.227E+00
 -20.499  0.201E+00  0.201E+00
 -20.498  0.174E+00  0.174E+00
 -20.497  0.148E+00  0.148E+00
 -20.496  0.138E+00  0.138E+00
 -20.495  0.133E+00  0.133E+00
 -20.494  0.130E+00  0.130E+00
 -20.493  0.128E+00  0.128E+00
 -20.492  0.126E+00  0.126E+00
 -20.491  0.125E+00  0.125E+00
 -20.490  0.124E+00  0.124E+00
 -20.489  0.124E+00  0.124E+00
 -20.488  0.124E+00  0.124E+00
 -20.487  0.124E+00  0.124E+00
 -20.486  0.123E+00  0.123E+00
 -20.485  0.123E+00  0.123E+00
 -20.484  0.123E+00  0.123E+00
 -20.483  0.123E+00  0.123E+00
 -20.482  0.122E+00  0.122E+00
 -20.481  0.101E+00  0.101E+00
 -20.480  0.997E-01  0.997E-01
 -20.479  0.986E-01  0.986E-01
 -20.478  0.976E-01  0.976E-01
 -20.477  0.967E-01  0.967E-01
 -20.476  0.959E-01  0.959E-01
 -20.475  0.951E-01  0.951E-01
 -20.474  0.943E-01  0.943E-01
 -20.473  0.936E-01  0.936E-01
 -20.472  0.930E-01  0.930E-01
 -20.471  0.879E-01  0.879E-01
 -20.470  0.877E-01  0.877E-01
 -20.469  0.876E-01  0.876E-01
 -20.468  0.876E-01  0.876E-01
 -20.467  0.875E-01  0.875E-01
 -20.466  0.874E-01  0.874E-01
 -20.465  0.882E-01  0.882E-01
 -20.464  0.894E-01  0.894E-01
 -20.463  0.907E-01  0.907E-01
 -20.462  0.919E-01  0.919E-01
 -20.461  0.932E-01  0.932E-01
 -20.460  0.944E-01  0.944E-01
 -20.459  0.957E-01  0.957E-01
 -20.458  0.970E-01  0.970E-01
 -20.457  0.982E-01  0.982E-01
 -20.456  0.995E-01  0.995E-01
 -20.455  0.101E+00  0.101E+00
 -20.454  0.102E+00  0.102E+00
 -20.453  0.103E+00  0.103E+00
 -20.452  0.104E+00  0.104E+00
 -20.451  0.105E+00  0.105E+00
 -20.450  0.107E+00  0.107E+00
 -20.449  0.108E+00  0.108E+00
 -20.448  0.109E+00  0.109E+00
 -20.447  0.110E+00  0.110E+00
 -20.446  0.111E+00  0.111E+00
 -20.445  0.112E+00  0.112E+00
 -20.444  0.113E+00  0.113E+00
 -20.443  0.114E+00  0.114E+00
 -20.442  0.116E+00  0.116E+00
 -20.441  0.129E+00  0.129E+00
 -20.440  0.138E+00  0.138E+00
 -20.439  0.142E+00  0.142E+00
 -20.438  0.141E+00  0.141E+00
 -20.437  0.139E+00  0.139E+00
 -20.436  0.135E+00  0.135E+00
 -20.435  0.131E+00  0.131E+00
 -20.434  0.125E+00  0.125E+00
 -20.433  0.119E+00  0.119E+00
 -20.432  0.115E+00  0.115E+00
 -20.431  0.139E+00  0.139E+00
 -20.430  0.138E+00  0.138E+00
 -20.429  0.137E+00  0.137E+00
 -20.428  0.135E+00  0.135E+00
 -20.427  0.135E+00  0.135E+00
 -20.426  0.139E+00  0.139E+00
 -20.425  0.142E+00  0.142E+00
 -20.424  0.146E+00  0.146E+00
 -20.423  0.149E+00  0.149E+00
 -20.422  0.182E+00  0.182E+00
 -20.421  0.177E+00  0.177E+00
 -20.420  0.172E+00  0.172E+00
 -20.419  0.168E+00  0.168E+00
 -20.418  0.163E+00  0.163E+00
 -20.417  0.158E+00  0.158E+00
 -20.416  0.154E+00  0.154E+00
 -20.415  0.149E+00  0.149E+00
 -20.414  0.144E+00  0.144E+00
 -20.413  0.140E+00  0.140E+00
 -20.412  0.135E+00  0.135E+00
 -20.411  0.131E+00  0.131E+00
 -20.410  0.128E+00  0.128E+00
 -20.409  0.124E+00  0.124E+00
 -20.408  0.121E+00  0.121E+00
 -20.407  0.119E+00  0.119E+00
 -20.406  0.118E+00  0.118E+00
 -20.405  0.117E+00  0.117E+00
 -20.404  0.116E+00  0.116E+00
 -20.403  0.115E+00  0.115E+00
 -20.402  0.130E+00  0.130E+00
 -20.401  0.127E+00  0.127E+00
 -20.400  0.124E+00  0.124E+00
 -20.399  0.121E+00  0.121E+00
 -20.398  0.119E+00  0.119E+00
 -20.397  0.116E+00  0.116E+00
 -20.396  0.113E+00  0.113E+00
 -20.395  0.111E+00  0.111E+00
 -20.394  0.110E+00  0.110E+00
 -20.393  0.908E-01  0.908E-01
 -20.392  0.886E-01  0.886E-01
 -20.391  0.873E-01  0.873E-01
 -20.390  0.865E-01  0.865E-01
 -20.389  0.857E-01  0.857E-01
 -20.388  0.850E-01  0.850E-01
 -20.387  0.850E-01  0.850E-01
 -20.386  0.851E-01  0.851E-01
 -20.385  0.852E-01  0.852E-01
 -20.384  0.854E-01  0.854E-01
 -20.383  0.856E-01  0.856E-01
 -20.382  0.859E-01  0.859E-01
 -20.381  0.862E-01  0.862E-01
 -20.380  0.866E-01  0.866E-01
 -20.379  0.870E-01  0.870E-01
 -20.378  0.874E-01  0.874E-01
 -20.377  0.886E-01  0.886E-01
 -20.376  0.897E-01  0.897E-01
 -20.375  0.909E-01  0.909E-01
 -20.374  0.917E-01  0.917E-01
 -20.373  0.910E-01  0.910E-01