# E (eV)   ldos(E)   pdos(E)    pdos(E)    pdos(E)   
 -21.338  0.000E+00  0.000E+00  0.000E+00  0.000E+00
 -21.337  0.110E-03  0.331E-05  0.635E-04  0.431E-04
 -21.336  0.143E-03  0.293E-05  0.797E-04  0.602E-04
 -21.335  0.211E-03  0.335E-05  0.116E-03  0.918E-04
 -21.334  0.288E-03  0.378E-05  0.156E-03  0.128E-03
 -21.333  0.371E-03  0.418E-05  0.200E-03  0.167E-03
 -21.332  0.392E-03  0.392E-05  0.210E-03  0.178E-03
 -21.331  0.427E-03  0.385E-05  0.228E-03  0.195E-03
 -21.330  0.495E-03  0.410E-05  0.264E-03  0.227E-03
 -21.329  0.567E-03  0.436E-05  0.302E-03  0.261E-03
 -21.328  0.642E-03  0.462E-05  0.341E-03  0.297E-03
 -21.327  0.721E-03  0.489E-05  0.382E-03  0.334E-03
 -21.326  0.728E-03  0.470E-05  0.386E-03  0.338E-03
 -21.325  0.779E-03  0.479E-05  0.412E-03  0.362E-03
 -21.324  0.828E-03  0.489E-05  0.438E-03  0.385E-03
 -21.323  0.881E-03  0.501E-05  0.466E-03  0.410E-03
 -21.322  0.950E-03  0.522E-05  0.502E-03  0.442E-03
 -21.321  0.102E-02  0.543E-05  0.539E-03  0.475E-03
 -21.320  0.109E-02  0.564E-05  0.577E-03  0.509E-03
 -21.319  0.117E-02  0.586E-05  0.615E-03  0.544E-03
 -21.318  0.122E-02  0.599E-05  0.645E-03  0.571E-03
 -21.317  0.123E-02  0.590E-05  0.650E-03  0.575E-03
 -21.316  0.127E-02  0.596E-05  0.670E-03  0.593E-03
 -21.315  0.133E-02  0.610E-05  0.700E-03  0.620E-03
 -21.314  0.138E-02  0.625E-05  0.731E-03  0.647E-03
 -21.313  0.144E-02  0.640E-05  0.761E-03  0.673E-03
 -21.312  0.150E-02  0.655E-05  0.792E-03  0.700E-03
 -21.311  0.156E-02  0.673E-05  0.826E-03  0.731E-03
 -21.310  0.163E-02  0.692E-05  0.863E-03  0.762E-03
 -21.309  0.170E-02  0.712E-05  0.900E-03  0.795E-03
 -21.308  0.177E-02  0.732E-05  0.937E-03  0.827E-03
 -21.307  0.184E-02  0.752E-05  0.975E-03  0.860E-03
 -21.306  0.184E-02  0.742E-05  0.972E-03  0.857E-03
 -21.305  0.188E-02  0.750E-05  0.993E-03  0.875E-03
 -21.304  0.191E-02  0.758E-05  0.101E-02  0.892E-03
 -21.303  0.196E-02  0.770E-05  0.104E-02  0.913E-03
 -21.302  0.202E-02  0.787E-05  0.107E-02  0.940E-03
 -21.301  0.208E-02  0.803E-05  0.110E-02  0.965E-03
 -21.300  0.213E-02  0.820E-05  0.113E-02  0.991E-03
 -21.299  0.219E-02  0.837E-05  0.117E-02  0.102E-02
 -21.298  0.225E-02  0.854E-05  0.120E-02  0.104E-02
 -21.297  0.230E-02  0.872E-05  0.123E-02  0.107E-02
 -21.296  0.237E-02  0.894E-05  0.127E-02  0.110E-02
 -21.295  0.244E-02  0.918E-05  0.131E-02  0.113E-02
 -21.294  0.251E-02  0.942E-05  0.134E-02  0.115E-02
 -21.293  0.253E-02  0.951E-05  0.136E-02  0.116E-02
 -21.292  0.253E-02  0.956E-05  0.137E-02  0.116E-02
 -21.291  0.259E-02  0.984E-05  0.140E-02  0.118E-02
 -21.290  0.264E-02  0.101E-04  0.144E-02  0.119E-02
 -21.289  0.269E-02  0.104E-04  0.147E-02  0.120E-02
 -21.288  0.272E-02  0.108E-04  0.150E-02  0.121E-02
 -21.287  0.442E-02  0.175E-04  0.245E-02  0.195E-02
 -21.286  0.391E-02  0.161E-04  0.220E-02  0.170E-02
 -21.285  0.345E-02  0.147E-04  0.197E-02  0.146E-02
 -21.284  0.301E-02  0.131E-04  0.174E-02  0.126E-02
 -21.283  0.261E-02  0.115E-04  0.152E-02  0.108E-02
 -21.282  0.224E-02  0.983E-05  0.130E-02  0.929E-03
 -21.281  0.192E-02  0.819E-05  0.111E-02  0.808E-03
 -21.280  0.183E-02  0.783E-05  0.106E-02  0.763E-03
 -21.279  0.174E-02  0.746E-05  0.101E-02  0.721E-03
 -21.278  0.165E-02  0.707E-05  0.956E-03  0.683E-03
 -21.277  0.553E-02  0.234E-04  0.319E-02  0.232E-02
 -21.276  0.107E-02  0.415E-05  0.564E-03  0.504E-03
 -21.275  0.127E-02  0.467E-05  0.641E-03  0.621E-03
 -21.274  0.146E-02  0.519E-05  0.722E-03  0.735E-03
 -21.273  0.166E-02  0.571E-05  0.806E-03  0.844E-03
 -21.272  0.185E-02  0.623E-05  0.894E-03  0.950E-03
 -21.271  0.273E-02  0.815E-05  0.131E-02  0.141E-02
 -21.270  0.405E-02  0.112E-04  0.194E-02  0.209E-02
 -21.269  0.530E-02  0.143E-04  0.257E-02  0.272E-02
 -21.268  0.650E-02  0.176E-04  0.319E-02  0.330E-02
 -21.267  0.369E-02  0.104E-04  0.179E-02  0.188E-02
 -21.266  0.376E-02  0.105E-04  0.184E-02  0.191E-02
 -21.265  0.385E-02  0.106E-04  0.189E-02  0.194E-02
 -21.264  0.394E-02  0.107E-04  0.195E-02  0.197E-02
 -21.263  0.404E-02  0.108E-04  0.202E-02  0.201E-02
 -21.262  0.414E-02  0.108E-04  0.209E-02  0.204E-02
 -21.261  0.426E-02  0.112E-04  0.216E-02  0.209E-02
 -21.260  0.677E-02  0.161E-04  0.385E-02  0.290E-02
 -21.259  0.923E-02  0.225E-04  0.528E-02  0.393E-02
 -21.258  0.112E-01  0.297E-04  0.613E-02  0.504E-02
 -21.257  0.442E-02  0.122E-04  0.228E-02  0.212E-02
 -21.256  0.436E-02  0.122E-04  0.227E-02  0.208E-02
 -21.255  0.432E-02  0.122E-04  0.225E-02  0.205E-02
 -21.254  0.430E-02  0.122E-04  0.225E-02  0.204E-02
 -21.253  0.437E-02  0.123E-04  0.228E-02  0.208E-02
 -21.252  0.446E-02  0.124E-04  0.231E-02  0.213E-02
 -21.251  0.455E-02  0.126E-04  0.236E-02  0.218E-02
 -21.250  0.464E-02  0.128E-04  0.240E-02  0.223E-02
 -21.249  0.473E-02  0.130E-04  0.244E-02  0.227E-02
 -21.248  0.481E-02  0.132E-04  0.248E-02  0.232E-02
 -21.247  0.490E-02  0.134E-04  0.253E-02  0.236E-02
 -21.246  0.499E-02  0.136E-04  0.257E-02  0.240E-02
 -21.245  0.507E-02  0.138E-04  0.261E-02  0.244E-02
 -21.244  0.515E-02  0.141E-04  0.266E-02  0.248E-02
 -21.243  0.524E-02  0.143E-04  0.270E-02  0.252E-02
 -21.242  0.532E-02  0.145E-04  0.275E-02  0.256E-02
 -21.241  0.541E-02  0.148E-04  0.280E-02  0.260E-02
 -21.240  0.549E-02  0.150E-04  0.284E-02  0.263E-02
 -21.239  0.557E-02  0.153E-04  0.289E-02  0.266E-02
 -21.238  0.565E-02  0.155E-04  0.294E-02  0.269E-02
 -21.237  0.752E-02  0.200E-04  0.385E-02  0.365E-02
 -21.236  0.732E-02  0.192E-04  0.372E-02  0.358E-02
 -21.235  0.714E-02  0.187E-04  0.363E-02  0.350E-02
 -21.234  0.696E-02  0.182E-04  0.353E-02  0.340E-02
 -21.233  0.677E-02  0.178E-04  0.345E-02  0.330E-02
 -21.232  0.657E-02  0.174E-04  0.337E-02  0.318E-02
 -21.231  0.665E-02  0.176E-04  0.341E-02  0.322E-02
 -21.230  0.682E-02  0.180E-04  0.350E-02  0.331E-02
 -21.229  0.700E-02  0.183E-04  0.358E-02  0.341E-02
 -21.228  0.718E-02  0.187E-04  0.366E-02  0.351E-02
 -21.227  0.596E-02  0.151E-04  0.300E-02  0.294E-02
 -21.226  0.604E-02  0.153E-04  0.304E-02  0.298E-02
 -21.225  0.612E-02  0.156E-04  0.309E-02  0.301E-02
 -21.224  0.620E-02  0.158E-04  0.313E-02  0.305E-02
 -21.223  0.628E-02  0.160E-04  0.318E-02  0.308E-02
 -21.222  0.636E-02  0.163E-04  0.323E-02  0.312E-02
 -21.221  0.644E-02  0.165E-04  0.328E-02  0.315E-02
 -21.220  0.652E-02  0.168E-04  0.332E-02  0.318E-02
 -21.219  0.660E-02  0.170E-04  0.337E-02  0.321E-02
 -21.218  0.669E-02  0.173E-04  0.342E-02  0.325E-02
 -21.217  0.676E-02  0.175E-04  0.347E-02  0.327E-02
 -21.216  0.683E-02  0.178E-04  0.351E-02  0.330E-02
 -21.215  0.690E-02  0.180E-04  0.356E-02  0.332E-02
 -21.214  0.694E-02  0.182E-04  0.359E-02  0.333E-02
 -21.213  0.694E-02  0.182E-04  0.359E-02  0.332E-02
 -21.212  0.695E-02  0.183E-04  0.361E-02  0.332E-02
 -21.211  0.696E-02  0.184E-04  0.362E-02  0.332E-02
 -21.210  0.698E-02  0.185E-04  0.364E-02  0.332E-02
 -21.209  0.700E-02  0.185E-04  0.365E-02  0.333E-02
 -21.208  0.701E-02  0.186E-04  0.366E-02  0.333E-02
 -21.207  0.809E-02  0.211E-04  0.418E-02  0.388E-02
 -21.206  0.805E-02  0.209E-04  0.415E-02  0.387E-02
 -21.205  0.801E-02  0.207E-04  0.412E-02  0.386E-02
 -21.204  0.797E-02  0.205E-04  0.410E-02  0.385E-02
 -21.203  0.793E-02  0.203E-04  0.407E-02  0.384E-02
 -21.202  0.791E-02  0.202E-04  0.405E-02  0.383E-02
 -21.201  0.793E-02  0.202E-04  0.407E-02  0.384E-02
 -21.200  0.795E-02  0.203E-04  0.408E-02  0.385E-02
 -21.199  0.797E-02  0.203E-04  0.409E-02  0.386E-02
 -21.198  0.800E-02  0.204E-04  0.411E-02  0.386E-02
 -21.197  0.805E-02  0.205E-04  0.414E-02  0.389E-02
 -21.196  0.815E-02  0.208E-04  0.419E-02  0.394E-02
 -21.195  0.825E-02  0.210E-04  0.424E-02  0.399E-02
 -21.194  0.836E-02  0.212E-04  0.429E-02  0.404E-02
 -21.193  0.846E-02  0.214E-04  0.434E-02  0.410E-02
 -21.192  0.857E-02  0.216E-04  0.439E-02  0.415E-02
 -21.191  0.867E-02  0.218E-04  0.444E-02  0.421E-02
 -21.190  0.878E-02  0.220E-04  0.449E-02  0.426E-02
 -21.189  0.888E-02  0.223E-04  0.454E-02  0.432E-02
 -21.188  0.800E-02  0.198E-04  0.406E-02  0.391E-02
 -21.187  0.809E-02  0.199E-04  0.412E-02  0.395E-02
 -21.186  0.820E-02  0.201E-04  0.419E-02  0.399E-02
 -21.185  0.832E-02  0.203E-04  0.426E-02  0.404E-02
 -21.184  0.847E-02  0.204E-04  0.435E-02  0.410E-02
 -21.183  0.862E-02  0.206E-04  0.444E-02  0.415E-02
 -21.182  0.877E-02  0.208E-04  0.454E-02  0.421E-02
 -21.181  0.893E-02  0.210E-04  0.464E-02  0.427E-02
 -21.180  0.910E-02  0.212E-04  0.474E-02  0.434E-02
 -21.179  0.928E-02  0.214E-04  0.485E-02  0.440E-02
 -21.178  0.946E-02  0.216E-04  0.497E-02  0.447E-02
 -21.177  0.964E-02  0.217E-04  0.508E-02  0.453E-02
 -21.176  0.982E-02  0.219E-04  0.519E-02  0.460E-02
 -21.175  0.100E-01  0.221E-04  0.531E-02  0.467E-02
 -21.174  0.102E-01  0.222E-04  0.543E-02  0.473E-02
 -21.173  0.104E-01  0.223E-04  0.555E-02  0.480E-02
 -21.172  0.106E-01  0.224E-04  0.566E-02  0.486E-02
 -21.171  0.107E-01  0.225E-04  0.578E-02  0.493E-02
 -21.170  0.109E-01  0.226E-04  0.590E-02  0.500E-02
 -21.169  0.111E-01  0.227E-04  0.602E-02  0.507E-02
 -21.168  0.121E-01  0.246E-04  0.652E-02  0.552E-02
 -21.167  0.122E-01  0.245E-04  0.662E-02  0.558E-02
 -21.166  0.124E-01  0.244E-04  0.672E-02  0.564E-02
 -21.165  0.125E-01  0.243E-04  0.681E-02  0.570E-02
 -21.164  0.127E-01  0.242E-04  0.692E-02  0.577E-02
 -21.163  0.129E-01  0.240E-04  0.702E-02  0.583E-02
 -21.162  0.130E-01  0.239E-04  0.712E-02  0.589E-02
 -21.161  0.131E-01  0.237E-04  0.716E-02  0.590E-02
 -21.160  0.114E-01  0.210E-04  0.623E-02  0.515E-02
 -21.159  0.104E-01  0.205E-04  0.563E-02  0.474E-02
 -21.158  0.103E-01  0.225E-04  0.549E-02  0.480E-02
 -21.157  0.101E-01  0.231E-04  0.533E-02  0.473E-02
 -21.156  0.981E-02  0.233E-04  0.515E-02  0.463E-02
 -21.155  0.953E-02  0.235E-04  0.498E-02  0.453E-02
 -21.154  0.939E-02  0.239E-04  0.488E-02  0.449E-02
 -21.153  0.939E-02  0.244E-04  0.485E-02  0.451E-02
 -21.152  0.936E-02  0.247E-04  0.483E-02  0.451E-02
 -21.151  0.933E-02  0.249E-04  0.480E-02  0.451E-02
 -21.150  0.931E-02  0.251E-04  0.478E-02  0.451E-02
 -21.149  0.928E-02  0.253E-04  0.475E-02  0.451E-02
 -21.148  0.926E-02  0.255E-04  0.473E-02  0.451E-02
 -21.147  0.924E-02  0.258E-04  0.471E-02  0.451E-02
 -21.146  0.926E-02  0.260E-04  0.471E-02  0.453E-02
 -21.145  0.936E-02  0.264E-04  0.475E-02  0.458E-02
 -21.144  0.944E-02  0.267E-04  0.479E-02  0.462E-02
 -21.143  0.951E-02  0.269E-04  0.483E-02  0.466E-02
 -21.142  0.959E-02  0.271E-04  0.487E-02  0.469E-02
 -21.141  0.966E-02  0.273E-04  0.491E-02  0.473E-02
 -21.140  0.974E-02  0.275E-04  0.495E-02  0.477E-02
 -21.139  0.903E-02  0.255E-04  0.455E-02  0.445E-02
 -21.138  0.911E-02  0.256E-04  0.461E-02  0.448E-02
 -21.137  0.919E-02  0.258E-04  0.466E-02  0.450E-02
 -21.136  0.927E-02  0.260E-04  0.472E-02  0.453E-02
 -21.135  0.936E-02  0.262E-04  0.477E-02  0.456E-02
 -21.134  0.948E-02  0.264E-04  0.485E-02  0.460E-02
 -21.133  0.961E-02  0.267E-04  0.493E-02  0.465E-02
 -21.132  0.973E-02  0.269E-04  0.501E-02  0.469E-02
 -21.131  0.984E-02  0.270E-04  0.509E-02  0.473E-02
 -21.130  0.995E-02  0.272E-04  0.516E-02  0.477E-02
 -21.129  0.999E-02  0.272E-04  0.520E-02  0.477E-02
 -21.128  0.100E-01  0.272E-04  0.523E-02  0.478E-02
 -21.127  0.101E-01  0.273E-04  0.526E-02  0.478E-02
 -21.126  0.101E-01  0.274E-04  0.529E-02  0.478E-02
 -21.125  0.101E-01  0.275E-04  0.531E-02  0.479E-02
 -21.124  0.102E-01  0.277E-04  0.534E-02  0.480E-02
 -21.123  0.102E-01  0.278E-04  0.536E-02  0.480E-02
 -21.122  0.102E-01  0.280E-04  0.538E-02  0.480E-02
 -21.121  0.102E-01  0.281E-04  0.539E-02  0.480E-02
 -21.120  0.119E-01  0.305E-04  0.642E-02  0.544E-02
 -21.119  0.119E-01  0.307E-04  0.644E-02  0.539E-02
 -21.118  0.137E-01  0.414E-04  0.697E-02  0.669E-02
 -21.117  0.135E-01  0.411E-04  0.695E-02  0.650E-02
 -21.116  0.133E-01  0.407E-04  0.691E-02  0.631E-02
 -21.115  0.130E-01  0.401E-04  0.685E-02  0.612E-02
 -21.114  0.127E-01  0.394E-04  0.677E-02  0.592E-02
 -21.113  0.124E-01  0.386E-04  0.667E-02  0.573E-02
 -21.112  0.121E-01  0.377E-04  0.656E-02  0.553E-02
 -21.111  0.118E-01  0.366E-04  0.642E-02  0.534E-02
 -21.110  0.114E-01  0.354E-04  0.627E-02  0.514E-02
 -21.109  0.148E-01  0.438E-04  0.809E-02  0.666E-02
 -21.108  0.139E-01  0.411E-04  0.767E-02  0.617E-02
 -21.107  0.130E-01  0.383E-04  0.722E-02  0.570E-02
 -21.106  0.120E-01  0.354E-04  0.674E-02  0.524E-02
 -21.105  0.112E-01  0.325E-04  0.636E-02  0.484E-02
 -21.104  0.106E-01  0.296E-04  0.607E-02  0.447E-02
 -21.103  0.100E-01  0.280E-04  0.577E-02  0.421E-02
 -21.102  0.944E-02  0.262E-04  0.545E-02  0.396E-02
 -21.101  0.886E-02  0.245E-04  0.511E-02  0.373E-02
 -21.100  0.829E-02  0.227E-04  0.476E-02  0.351E-02
 -21.099  0.772E-02  0.209E-04  0.438E-02  0.331E-02
 -21.098  0.717E-02  0.191E-04  0.399E-02  0.316E-02
 -21.097  0.731E-02  0.192E-04  0.401E-02  0.328E-02
 -21.096  0.743E-02  0.193E-04  0.402E-02  0.339E-02
 -21.095  0.751E-02  0.193E-04  0.402E-02  0.347E-02
 -21.094  0.786E-02  0.198E-04  0.413E-02  0.371E-02
 -21.093  0.849E-02  0.210E-04  0.435E-02  0.412E-02
 -21.092  0.912E-02  0.221E-04  0.458E-02  0.451E-02
 -21.091  0.976E-02  0.233E-04  0.484E-02  0.489E-02
 -21.090  0.104E-01  0.244E-04  0.512E-02  0.526E-02
 -21.089  0.164E-01  0.397E-04  0.836E-02  0.801E-02
 -21.088  0.158E-01  0.381E-04  0.811E-02  0.769E-02
 -21.087  0.153E-01  0.364E-04  0.784E-02  0.744E-02
 -21.086  0.148E-01  0.345E-04  0.754E-02  0.724E-02
 -21.085  0.143E-01  0.325E-04  0.721E-02  0.710E-02
 -21.084  0.139E-01  0.304E-04  0.686E-02  0.702E-02
 -21.083  0.138E-01  0.291E-04  0.668E-02  0.707E-02
 -21.082  0.145E-01  0.305E-04  0.713E-02  0.734E-02
 -21.081  0.152E-01  0.319E-04  0.759E-02  0.760E-02
 -21.080  0.105E-01  0.267E-04  0.532E-02  0.521E-02
 -21.079  0.102E-01  0.243E-04  0.510E-02  0.509E-02
 -21.078  0.110E-01  0.260E-04  0.543E-02  0.557E-02
 -21.077  0.118E-01  0.278E-04  0.578E-02  0.603E-02
 -21.076  0.126E-01  0.297E-04  0.615E-02  0.646E-02
 -21.075  0.134E-01  0.316E-04  0.653E-02  0.687E-02
 -21.074  0.142E-01  0.336E-04  0.693E-02  0.726E-02
 -21.073  0.150E-01  0.356E-04  0.734E-02  0.763E-02
 -21.072  0.158E-01  0.377E-04  0.778E-02  0.798E-02
 -21.071  0.166E-01  0.398E-04  0.823E-02  0.830E-02
 -21.070  0.173E-01  0.420E-04  0.869E-02  0.860E-02
 -21.069  0.121E-01  0.294E-04  0.613E-02  0.596E-02
 -21.068  0.122E-01  0.296E-04  0.617E-02  0.597E-02
 -21.067  0.122E-01  0.298E-04  0.622E-02  0.598E-02
 -21.066  0.123E-01  0.301E-04  0.626E-02  0.600E-02
 -21.065  0.124E-01  0.303E-04  0.631E-02  0.601E-02
 -21.064  0.124E-01  0.305E-04  0.635E-02  0.603E-02
 -21.063  0.125E-01  0.308E-04  0.640E-02  0.605E-02
 -21.062  0.125E-01  0.310E-04  0.644E-02  0.608E-02
 -21.061  0.126E-01  0.312E-04  0.648E-02  0.610E-02
 -21.060  0.329E-01  0.850E-04  0.179E-01  0.149E-01
 -21.059  0.175E-01  0.456E-04  0.972E-02  0.771E-02
 -21.058  0.121E-01  0.292E-04  0.607E-02  0.603E-02
 -21.057  0.122E-01  0.293E-04  0.613E-02  0.602E-02
 -21.056  0.122E-01  0.295E-04  0.620E-02  0.601E-02
 -21.055  0.126E-01  0.302E-04  0.636E-02  0.618E-02
 -21.054  0.149E-01  0.348E-04  0.726E-02  0.760E-02
 -21.053  0.172E-01  0.398E-04  0.827E-02  0.885E-02
 -21.052  0.194E-01  0.451E-04  0.939E-02  0.994E-02
 -21.051  0.215E-01  0.507E-04  0.106E-01  0.109E-01
 -21.050  0.138E-01  0.324E-04  0.695E-02  0.680E-02
 -21.049  0.138E-01  0.324E-04  0.698E-02  0.678E-02
 -21.048  0.138E-01  0.325E-04  0.700E-02  0.677E-02
 -21.047  0.138E-01  0.325E-04  0.703E-02  0.676E-02
 -21.046  0.138E-01  0.325E-04  0.704E-02  0.675E-02
 -21.045  0.138E-01  0.325E-04  0.706E-02  0.674E-02
 -21.044  0.138E-01  0.325E-04  0.707E-02  0.674E-02
 -21.043  0.138E-01  0.325E-04  0.707E-02  0.673E-02
 -21.042  0.138E-01  0.325E-04  0.708E-02  0.673E-02
 -21.041  0.138E-01  0.325E-04  0.708E-02  0.673E-02
 -21.040  0.138E-01  0.325E-04  0.708E-02  0.673E-02
 -21.039  0.139E-01  0.326E-04  0.709E-02  0.675E-02
 -21.038  0.139E-01  0.327E-04  0.711E-02  0.677E-02
 -21.037  0.139E-01  0.329E-04  0.712E-02  0.679E-02
 -21.036  0.140E-01  0.330E-04  0.713E-02  0.681E-02
 -21.035  0.140E-01  0.332E-04  0.714E-02  0.683E-02
 -21.034  0.140E-01  0.333E-04  0.715E-02  0.685E-02
 -21.033  0.141E-01  0.335E-04  0.716E-02  0.688E-02
 -21.032  0.141E-01  0.337E-04  0.717E-02  0.691E-02
 -21.031  0.141E-01  0.339E-04  0.718E-02  0.693E-02
 -21.030  0.142E-01  0.340E-04  0.718E-02  0.696E-02
 -21.029  0.142E-01  0.342E-04  0.719E-02  0.699E-02
 -21.028  0.142E-01  0.344E-04  0.719E-02  0.702E-02
 -21.027  0.143E-01  0.347E-04  0.720E-02  0.706E-02
 -21.026  0.143E-01  0.349E-04  0.720E-02  0.709E-02
 -21.025  0.144E-01  0.351E-04  0.720E-02  0.712E-02
 -21.024  0.144E-01  0.353E-04  0.725E-02  0.716E-02
 -21.023  0.186E-01  0.622E-04  0.855E-02  0.998E-02
 -21.022  0.277E-01  0.904E-04  0.129E-01  0.146E-01
 -21.021  0.405E-01  0.106E-03  0.203E-01  0.200E-01
 -21.020  0.146E-01  0.359E-04  0.741E-02  0.718E-02
 -21.019  0.146E-01  0.359E-04  0.741E-02  0.715E-02
 -21.018  0.146E-01  0.360E-04  0.744E-02  0.717E-02
 -21.017  0.147E-01  0.361E-04  0.746E-02  0.720E-02
 -21.016  0.148E-01  0.362E-04  0.749E-02  0.723E-02
 -21.015  0.148E-01  0.363E-04  0.752E-02  0.726E-02
 -21.014  0.149E-01  0.364E-04  0.755E-02  0.729E-02
 -21.013  0.149E-01  0.364E-04  0.757E-02  0.731E-02
 -21.012  0.150E-01  0.365E-04  0.760E-02  0.734E-02
 -21.011  0.144E-01  0.351E-04  0.731E-02  0.708E-02
 -21.010  0.145E-01  0.353E-04  0.735E-02  0.710E-02
 -21.009  0.146E-01  0.354E-04  0.739E-02  0.713E-02
 -21.008  0.146E-01  0.356E-04  0.743E-02  0.716E-02
 -21.007  0.147E-01  0.358E-04  0.748E-02  0.719E-02
 -21.006  0.148E-01  0.360E-04  0.752E-02  0.721E-02
 -21.005  0.148E-01  0.362E-04  0.757E-02  0.724E-02
 -21.004  0.149E-01  0.364E-04  0.761E-02  0.727E-02
 -21.003  0.150E-01  0.365E-04  0.765E-02  0.729E-02
 -21.002  0.151E-01  0.368E-04  0.770E-02  0.732E-02
 -21.001  0.151E-01  0.370E-04  0.774E-02  0.734E-02
 -21.000  0.152E-01  0.372E-04  0.779E-02  0.737E-02
 -20.999  0.153E-01  0.374E-04  0.783E-02  0.739E-02
 -20.998  0.153E-01  0.376E-04  0.788E-02  0.741E-02
 -20.997  0.154E-01  0.378E-04  0.792E-02  0.743E-02
 -20.996  0.155E-01  0.380E-04  0.797E-02  0.746E-02
 -20.995  0.155E-01  0.383E-04  0.802E-02  0.748E-02
 -20.994  0.156E-01  0.385E-04  0.807E-02  0.750E-02
 -20.993  0.157E-01  0.387E-04  0.812E-02  0.752E-02
 -20.992  0.157E-01  0.389E-04  0.817E-02  0.754E-02
 -20.991  0.158E-01  0.391E-04  0.822E-02  0.756E-02
 -20.990  0.163E-01  0.402E-04  0.845E-02  0.778E-02
 -20.989  0.163E-01  0.403E-04  0.848E-02  0.779E-02
 -20.988  0.164E-01  0.404E-04  0.851E-02  0.780E-02
 -20.987  0.164E-01  0.406E-04  0.854E-02  0.781E-02
 -20.986  0.164E-01  0.407E-04  0.857E-02  0.781E-02
 -20.985  0.165E-01  0.409E-04  0.860E-02  0.782E-02
 -20.984  0.165E-01  0.410E-04  0.864E-02  0.783E-02
 -20.983  0.165E-01  0.412E-04  0.867E-02  0.783E-02
 -20.982  0.166E-01  0.413E-04  0.870E-02  0.784E-02
 -20.981  0.242E-01  0.589E-04  0.123E-01  0.118E-01
 -20.980  0.228E-01  0.547E-04  0.114E-01  0.113E-01
 -20.979  0.218E-01  0.522E-04  0.109E-01  0.109E-01
 -20.978  0.208E-01  0.500E-04  0.105E-01  0.103E-01
 -20.977  0.198E-01  0.482E-04  0.101E-01  0.960E-02
 -20.976  0.192E-01  0.474E-04  0.100E-01  0.915E-02
 -20.975  0.197E-01  0.485E-04  0.102E-01  0.941E-02
 -20.974  0.202E-01  0.495E-04  0.104E-01  0.970E-02
 -20.973  0.207E-01  0.505E-04  0.106E-01  0.100E-01
 -20.972  0.212E-01  0.513E-04  0.108E-01  0.104E-01
 -20.971  0.167E-01  0.400E-04  0.839E-02  0.831E-02
 -20.970  0.168E-01  0.400E-04  0.842E-02  0.831E-02
 -20.969  0.168E-01  0.401E-04  0.845E-02  0.832E-02
 -20.968  0.168E-01  0.401E-04  0.848E-02  0.832E-02
 -20.967  0.169E-01  0.402E-04  0.851E-02  0.832E-02
 -20.966  0.169E-01  0.402E-04  0.855E-02  0.832E-02
 -20.965  0.170E-01  0.403E-04  0.859E-02  0.833E-02
 -20.964  0.170E-01  0.404E-04  0.865E-02  0.834E-02
 -20.963  0.171E-01  0.405E-04  0.870E-02  0.834E-02
 -20.962  0.171E-01  0.406E-04  0.875E-02  0.835E-02
 -20.961  0.172E-01  0.408E-04  0.882E-02  0.836E-02
 -20.960  0.174E-01  0.415E-04  0.894E-02  0.844E-02
 -20.959  0.176E-01  0.421E-04  0.906E-02  0.853E-02
 -20.958  0.178E-01  0.427E-04  0.918E-02  0.861E-02
 -20.957  0.180E-01  0.433E-04  0.930E-02  0.869E-02
 -20.956  0.182E-01  0.438E-04  0.942E-02  0.877E-02
 -20.955  0.184E-01  0.444E-04  0.954E-02  0.885E-02
 -20.954  0.186E-01  0.449E-04  0.966E-02  0.894E-02
 -20.953  0.188E-01  0.454E-04  0.979E-02  0.902E-02
 -20.952  0.191E-01  0.459E-04  0.991E-02  0.910E-02
 -20.951  0.193E-01  0.464E-04  0.100E-01  0.918E-02
 -20.950  0.195E-01  0.469E-04  0.102E-01  0.926E-02
 -20.949  0.197E-01  0.473E-04  0.103E-01  0.934E-02
 -20.948  0.203E-01  0.489E-04  0.107E-01  0.965E-02
 -20.947  0.212E-01  0.509E-04  0.111E-01  0.100E-01
 -20.946  0.220E-01  0.529E-04  0.116E-01  0.104E-01
 -20.945  0.229E-01  0.549E-04  0.120E-01  0.108E-01
 -20.944  0.238E-01  0.569E-04  0.125E-01  0.112E-01
 -20.943  0.246E-01  0.589E-04  0.130E-01  0.116E-01
 -20.942  0.255E-01  0.610E-04  0.134E-01  0.120E-01
 -20.941  0.264E-01  0.630E-04  0.139E-01  0.124E-01
 -20.940  0.273E-01  0.650E-04  0.143E-01  0.128E-01
 -20.939  0.281E-01  0.670E-04  0.148E-01  0.133E-01
 -20.938  0.371E-01  0.879E-04  0.194E-01  0.175E-01
 -20.937  0.455E-01  0.108E-03  0.239E-01  0.215E-01
 -20.936  0.400E-01  0.956E-04  0.211E-01  0.188E-01
 -20.935  0.345E-01  0.829E-04  0.183E-01  0.161E-01
 -20.934  0.287E-01  0.696E-04  0.154E-01  0.133E-01
 -20.933  0.229E-01  0.559E-04  0.123E-01  0.105E-01
 -20.932  0.139E-01  0.330E-04  0.734E-02  0.654E-02
 -20.931  0.128E-01  0.315E-04  0.681E-02  0.600E-02
 -20.930  0.117E-01  0.295E-04  0.624E-02  0.546E-02
 -20.929  0.106E-01  0.272E-04  0.563E-02  0.492E-02
 -20.928  0.937E-02  0.244E-04  0.498E-02  0.437E-02
 -20.927  0.820E-02  0.214E-04  0.436E-02  0.382E-02
 -20.926  0.702E-02  0.180E-04  0.372E-02  0.328E-02
 -20.925  0.579E-02  0.143E-04  0.304E-02  0.273E-02
 -20.924  0.459E-02  0.104E-04  0.237E-02  0.221E-02
 -20.923  0.463E-02  0.104E-04  0.241E-02  0.222E-02
 -20.922  0.540E-02  0.132E-04  0.270E-02  0.269E-02
 -20.921  0.625E-02  0.160E-04  0.303E-02  0.320E-02
 -20.920  0.713E-02  0.187E-04  0.339E-02  0.372E-02
 -20.919  0.801E-02  0.212E-04  0.378E-02  0.421E-02
 -20.918  0.888E-02  0.236E-04  0.419E-02  0.467E-02
 -20.917  0.977E-02  0.259E-04  0.462E-02  0.512E-02
 -20.916  0.107E-01  0.280E-04  0.509E-02  0.556E-02
 -20.915  0.116E-01  0.300E-04  0.559E-02  0.597E-02
 -20.914  0.125E-01  0.318E-04  0.610E-02  0.635E-02
 -20.913  0.134E-01  0.335E-04  0.664E-02  0.671E-02
 -20.912  0.108E-01  0.256E-04  0.537E-02  0.538E-02
 -20.911  0.119E-01  0.281E-04  0.596E-02  0.589E-02
 -20.910  0.130E-01  0.307E-04  0.657E-02  0.640E-02
 -20.909  0.141E-01  0.333E-04  0.720E-02  0.691E-02
 -20.908  0.153E-01  0.359E-04  0.784E-02  0.742E-02
 -20.907  0.165E-01  0.385E-04  0.850E-02  0.793E-02
 -20.906  0.177E-01  0.412E-04  0.918E-02  0.844E-02
 -20.905  0.189E-01  0.439E-04  0.988E-02  0.896E-02
 -20.904  0.201E-01  0.467E-04  0.106E-01  0.947E-02
 -20.903  0.214E-01  0.494E-04  0.113E-01  0.998E-02
 -20.902  0.226E-01  0.523E-04  0.121E-01  0.105E-01
 -20.901  0.239E-01  0.551E-04  0.128E-01  0.110E-01
 -20.900  0.252E-01  0.580E-04  0.136E-01  0.115E-01
 -20.899  0.265E-01  0.609E-04  0.144E-01  0.121E-01
 -20.898  0.279E-01  0.639E-04  0.152E-01  0.126E-01
 -20.897  0.266E-01  0.602E-04  0.147E-01  0.119E-01
 -20.896  0.252E-01  0.563E-04  0.140E-01  0.111E-01
 -20.895  0.237E-01  0.525E-04  0.133E-01  0.104E-01
 -20.894  0.222E-01  0.488E-04  0.125E-01  0.970E-02
 -20.893  0.207E-01  0.453E-04  0.116E-01  0.902E-02
 -20.892  0.246E-01  0.560E-04  0.133E-01  0.113E-01
 -20.891  0.240E-01  0.555E-04  0.127E-01  0.113E-01
 -20.890  0.238E-01  0.559E-04  0.123E-01  0.114E-01
 -20.889  0.236E-01  0.567E-04  0.120E-01  0.116E-01
 -20.888  0.236E-01  0.582E-04  0.116E-01  0.119E-01
 -20.887  0.241E-01  0.615E-04  0.115E-01  0.125E-01
 -20.886  0.247E-01  0.653E-04  0.116E-01  0.131E-01
 -20.885  0.255E-01  0.696E-04  0.118E-01  0.136E-01
 -20.884  0.265E-01  0.744E-04  0.122E-01  0.142E-01
 -20.883  0.282E-01  0.802E-04  0.131E-01  0.150E-01
 -20.882  0.280E-01  0.792E-04  0.131E-01  0.149E-01
 -20.881  0.270E-01  0.753E-04  0.127E-01  0.142E-01
 -20.880  0.260E-01  0.715E-04  0.123E-01  0.136E-01
 -20.879  0.249E-01  0.680E-04  0.119E-01  0.130E-01
 -20.878  0.239E-01  0.646E-04  0.115E-01  0.124E-01
 -20.877  0.230E-01  0.614E-04  0.110E-01  0.119E-01
 -20.876  0.220E-01  0.583E-04  0.106E-01  0.113E-01
 -20.875  0.210E-01  0.554E-04  0.102E-01  0.107E-01
 -20.874  0.200E-01  0.526E-04  0.980E-02  0.102E-01
 -20.873  0.220E-01  0.570E-04  0.108E-01  0.111E-01
 -20.872  0.218E-01  0.561E-04  0.108E-01  0.110E-01
 -20.871  0.217E-01  0.553E-04  0.107E-01  0.109E-01
 -20.870  0.215E-01  0.544E-04  0.106E-01  0.108E-01
 -20.869  0.213E-01  0.535E-04  0.105E-01  0.108E-01
 -20.868  0.211E-01  0.527E-04  0.104E-01  0.107E-01
 -20.867  0.209E-01  0.518E-04  0.103E-01  0.106E-01
 -20.866  0.207E-01  0.509E-04  0.102E-01  0.105E-01
 -20.865  0.205E-01  0.501E-04  0.101E-01  0.104E-01
 -20.864  0.204E-01  0.492E-04  0.994E-02  0.104E-01
 -20.863  0.202E-01  0.485E-04  0.984E-02  0.103E-01
 -20.862  0.203E-01  0.485E-04  0.986E-02  0.104E-01
 -20.861  0.205E-01  0.488E-04  0.995E-02  0.105E-01
 -20.860  0.207E-01  0.492E-04  0.100E-01  0.107E-01
 -20.859  0.209E-01  0.495E-04  0.101E-01  0.108E-01
 -20.858  0.168E-01  0.411E-04  0.839E-02  0.840E-02
 -20.857  0.171E-01  0.419E-04  0.855E-02  0.852E-02
 -20.856  0.174E-01  0.426E-04  0.871E-02  0.864E-02
 -20.855  0.177E-01  0.434E-04  0.887E-02  0.877E-02
 -20.854  0.180E-01  0.441E-04  0.903E-02  0.891E-02
 -20.853  0.183E-01  0.449E-04  0.920E-02  0.905E-02
 -20.852  0.186E-01  0.457E-04  0.936E-02  0.919E-02
 -20.851  0.189E-01  0.465E-04  0.952E-02  0.933E-02
 -20.850  0.192E-01  0.473E-04  0.969E-02  0.948E-02
 -20.849  0.195E-01  0.481E-04  0.985E-02  0.963E-02
 -20.848  0.199E-01  0.489E-04  0.100E-01  0.978E-02
 -20.847  0.202E-01  0.497E-04  0.102E-01  0.994E-02
 -20.846  0.205E-01  0.505E-04  0.103E-01  0.101E-01
 -20.845  0.208E-01  0.513E-04  0.105E-01  0.103E-01
 -20.844  0.182E-01  0.445E-04  0.907E-02  0.913E-02
 -20.843  0.185E-01  0.451E-04  0.925E-02  0.919E-02
 -20.842  0.187E-01  0.458E-04  0.942E-02  0.925E-02
 -20.841  0.190E-01  0.464E-04  0.959E-02  0.932E-02
 -20.840  0.192E-01  0.471E-04  0.976E-02  0.939E-02
 -20.839  0.194E-01  0.479E-04  0.993E-02  0.947E-02
 -20.838  0.196E-01  0.484E-04  0.101E-01  0.951E-02
 -20.837  0.196E-01  0.480E-04  0.101E-01  0.941E-02
 -20.836  0.195E-01  0.476E-04  0.101E-01  0.932E-02
 -20.835  0.194E-01  0.472E-04  0.101E-01  0.923E-02
 -20.834  0.193E-01  0.469E-04  0.102E-01  0.914E-02
 -20.833  0.243E-01  0.595E-04  0.127E-01  0.116E-01
 -20.832  0.255E-01  0.625E-04  0.134E-01  0.121E-01
 -20.831  0.268E-01  0.656E-04  0.141E-01  0.126E-01
 -20.830  0.268E-01  0.657E-04  0.142E-01  0.126E-01
 -20.829  0.263E-01  0.644E-04  0.140E-01  0.123E-01
 -20.828  0.258E-01  0.630E-04  0.138E-01  0.119E-01
 -20.827  0.252E-01  0.616E-04  0.135E-01  0.116E-01
 -20.826  0.247E-01  0.602E-04  0.133E-01  0.113E-01
 -20.825  0.241E-01  0.588E-04  0.131E-01  0.109E-01
 -20.824  0.235E-01  0.574E-04  0.129E-01  0.106E-01
 -20.823  0.235E-01  0.577E-04  0.128E-01  0.106E-01
 -20.822  0.229E-01  0.570E-04  0.126E-01  0.103E-01
 -20.821  0.224E-01  0.562E-04  0.123E-01  0.100E-01
 -20.820  0.218E-01  0.553E-04  0.120E-01  0.974E-02
 -20.819  0.214E-01  0.548E-04  0.118E-01  0.954E-02
 -20.818  0.215E-01  0.556E-04  0.119E-01  0.961E-02
 -20.817  0.216E-01  0.564E-04  0.119E-01  0.968E-02
 -20.816  0.218E-01  0.571E-04  0.120E-01  0.975E-02
 -20.815  0.219E-01  0.579E-04  0.120E-01  0.982E-02
 -20.814  0.220E-01  0.585E-04  0.121E-01  0.989E-02
 -20.813  0.221E-01  0.592E-04  0.121E-01  0.996E-02
 -20.812  0.222E-01  0.598E-04  0.121E-01  0.100E-01
 -20.811  0.223E-01  0.603E-04  0.122E-01  0.101E-01
 -20.810  0.224E-01  0.609E-04  0.122E-01  0.102E-01
 -20.809  0.225E-01  0.614E-04  0.123E-01  0.102E-01
 -20.808  0.226E-01  0.618E-04  0.123E-01  0.103E-01
 -20.807  0.228E-01  0.625E-04  0.124E-01  0.104E-01
 -20.806  0.231E-01  0.633E-04  0.126E-01  0.105E-01
 -20.805  0.234E-01  0.641E-04  0.127E-01  0.106E-01
 -20.804  0.552E-01  0.147E-03  0.298E-01  0.253E-01
 -20.803  0.315E-01  0.844E-04  0.174E-01  0.140E-01
 -20.802  0.234E-01  0.628E-04  0.120E-01  0.113E-01
 -20.801  0.227E-01  0.607E-04  0.117E-01  0.109E-01
 -20.800  0.221E-01  0.586E-04  0.115E-01  0.106E-01
 -20.799  0.217E-01  0.570E-04  0.112E-01  0.104E-01
 -20.798  0.214E-01  0.558E-04  0.110E-01  0.103E-01
 -20.797  0.211E-01  0.547E-04  0.108E-01  0.102E-01
 -20.796  0.208E-01  0.537E-04  0.106E-01  0.101E-01
 -20.795  0.205E-01  0.527E-04  0.104E-01  0.101E-01
 -20.794  0.202E-01  0.516E-04  0.102E-01  0.998E-02
 -20.793  0.199E-01  0.507E-04  0.994E-02  0.993E-02
 -20.792  0.197E-01  0.500E-04  0.978E-02  0.990E-02
 -20.791  0.196E-01  0.494E-04  0.964E-02  0.988E-02
 -20.790  0.194E-01  0.488E-04  0.949E-02  0.987E-02
 -20.789  0.192E-01  0.483E-04  0.933E-02  0.986E-02
 -20.788  0.192E-01  0.482E-04  0.922E-02  0.991E-02
 -20.787  0.196E-01  0.491E-04  0.940E-02  0.101E-01
 -20.786  0.199E-01  0.500E-04  0.959E-02  0.103E-01
 -20.785  0.203E-01  0.510E-04  0.979E-02  0.105E-01
 -20.784  0.208E-01  0.521E-04  0.100E-01  0.108E-01
 -20.783  0.214E-01  0.533E-04  0.103E-01  0.111E-01
 -20.782  0.221E-01  0.546E-04  0.106E-01  0.114E-01
 -20.781  0.228E-01  0.561E-04  0.109E-01  0.119E-01
 -20.780  0.236E-01  0.577E-04  0.112E-01  0.123E-01
 -20.779  0.244E-01  0.594E-04  0.116E-01  0.127E-01
 -20.778  0.252E-01  0.611E-04  0.120E-01  0.131E-01
 -20.777  0.260E-01  0.630E-04  0.124E-01  0.135E-01
 -20.776  0.269E-01  0.649E-04  0.129E-01  0.139E-01
 -20.775  0.350E-01  0.853E-04  0.171E-01  0.178E-01
 -20.774  0.301E-01  0.729E-04  0.148E-01  0.152E-01