# E (eV)   ldos(E)   pdos(E)    pdos(E)    pdos(E)   
 -21.543  0.833E-08  0.529E-09  0.433E-08  0.347E-08
 -21.542  0.916E-08  0.581E-09  0.476E-08  0.382E-08
 -21.541  0.101E-07  0.637E-09  0.524E-08  0.421E-08
 -21.540  0.111E-07  0.698E-09  0.575E-08  0.463E-08
 -21.539  0.122E-07  0.765E-09  0.632E-08  0.509E-08
 -21.538  0.134E-07  0.839E-09  0.695E-08  0.559E-08
 -21.537  0.147E-07  0.918E-09  0.763E-08  0.614E-08
 -21.536  0.161E-07  0.101E-08  0.837E-08  0.674E-08
 -21.535  0.177E-07  0.110E-08  0.918E-08  0.740E-08
 -21.534  0.194E-07  0.120E-08  0.101E-07  0.812E-08
 -21.533  0.213E-07  0.132E-08  0.110E-07  0.891E-08
 -21.532  0.233E-07  0.144E-08  0.121E-07  0.977E-08
 -21.531  0.255E-07  0.157E-08  0.132E-07  0.107E-07
 -21.530  0.279E-07  0.171E-08  0.145E-07  0.117E-07
 -21.529  0.306E-07  0.187E-08  0.159E-07  0.128E-07
 -21.528  0.335E-07  0.204E-08  0.174E-07  0.141E-07
 -21.527  0.366E-07  0.223E-08  0.190E-07  0.154E-07
 -21.526  0.400E-07  0.243E-08  0.208E-07  0.168E-07
 -21.525  0.437E-07  0.265E-08  0.227E-07  0.184E-07
 -21.524  0.478E-07  0.288E-08  0.248E-07  0.201E-07
 -21.523  0.522E-07  0.314E-08  0.270E-07  0.220E-07
 -21.522  0.569E-07  0.342E-08  0.295E-07  0.240E-07
 -21.521  0.621E-07  0.372E-08  0.322E-07  0.262E-07
 -21.520  0.677E-07  0.404E-08  0.351E-07  0.286E-07
 -21.519  0.739E-07  0.439E-08  0.383E-07  0.312E-07
 -21.518  0.805E-07  0.478E-08  0.417E-07  0.340E-07
 -21.517  0.877E-07  0.519E-08  0.454E-07  0.370E-07
 -21.516  0.955E-07  0.563E-08  0.495E-07  0.404E-07
 -21.515  0.104E-06  0.611E-08  0.539E-07  0.440E-07
 -21.514  0.113E-06  0.663E-08  0.586E-07  0.478E-07
 -21.513  0.123E-06  0.719E-08  0.637E-07  0.521E-07
 -21.512  0.134E-06  0.780E-08  0.693E-07  0.566E-07
 -21.511  0.145E-06  0.845E-08  0.753E-07  0.616E-07
 -21.510  0.158E-06  0.915E-08  0.818E-07  0.669E-07
 -21.509  0.171E-06  0.991E-08  0.888E-07  0.727E-07
 -21.508  0.186E-06  0.107E-07  0.964E-07  0.790E-07
 -21.507  0.202E-06  0.116E-07  0.105E-06  0.858E-07
 -21.506  0.219E-06  0.125E-07  0.113E-06  0.931E-07
 -21.505  0.237E-06  0.136E-07  0.123E-06  0.101E-06
 -21.504  0.257E-06  0.147E-07  0.133E-06  0.109E-06
 -21.503  0.279E-06  0.158E-07  0.144E-06  0.119E-06
 -21.502  0.302E-06  0.171E-07  0.156E-06  0.129E-06
 -21.501  0.327E-06  0.184E-07  0.169E-06  0.139E-06
 -21.500  0.354E-06  0.199E-07  0.183E-06  0.151E-06
 -21.499  0.383E-06  0.215E-07  0.198E-06  0.163E-06
 -21.498  0.414E-06  0.231E-07  0.214E-06  0.177E-06
 -21.497  0.447E-06  0.249E-07  0.231E-06  0.191E-06
 -21.496  0.483E-06  0.268E-07  0.250E-06  0.206E-06
 -21.495  0.522E-06  0.289E-07  0.270E-06  0.223E-06
 -21.494  0.563E-06  0.311E-07  0.291E-06  0.241E-06
 -21.493  0.608E-06  0.335E-07  0.315E-06  0.260E-06
 -21.492  0.656E-06  0.360E-07  0.339E-06  0.281E-06
 -21.491  0.707E-06  0.387E-07  0.366E-06  0.303E-06
 -21.490  0.763E-06  0.416E-07  0.394E-06  0.327E-06
 -21.489  0.822E-06  0.446E-07  0.425E-06  0.352E-06
 -21.488  0.885E-06  0.479E-07  0.458E-06  0.380E-06
 -21.487  0.953E-06  0.514E-07  0.493E-06  0.409E-06
 -21.486  0.103E-05  0.552E-07  0.530E-06  0.440E-06
 -21.485  0.110E-05  0.592E-07  0.570E-06  0.474E-06
 -21.484  0.119E-05  0.634E-07  0.613E-06  0.510E-06
 -21.483  0.128E-05  0.680E-07  0.659E-06  0.549E-06
 -21.482  0.137E-05  0.728E-07  0.709E-06  0.590E-06
 -21.481  0.147E-05  0.779E-07  0.761E-06  0.634E-06
 -21.480  0.158E-05  0.834E-07  0.817E-06  0.681E-06
 -21.479  0.170E-05  0.892E-07  0.877E-06  0.732E-06
 -21.478  0.182E-05  0.954E-07  0.941E-06  0.786E-06
 -21.477  0.195E-05  0.102E-06  0.101E-05  0.843E-06
 -21.476  0.210E-05  0.109E-06  0.108E-05  0.905E-06
 -21.475  0.225E-05  0.116E-06  0.116E-05  0.970E-06
 -21.474  0.241E-05  0.124E-06  0.124E-05  0.104E-05
 -21.473  0.258E-05  0.133E-06  0.133E-05  0.111E-05
 -21.472  0.276E-05  0.142E-06  0.142E-05  0.119E-05
 -21.471  0.295E-05  0.151E-06  0.152E-05  0.128E-05
 -21.470  0.316E-05  0.161E-06  0.163E-05  0.137E-05
 -21.469  0.338E-05  0.172E-06  0.174E-05  0.146E-05
 -21.468  0.361E-05  0.183E-06  0.186E-05  0.157E-05
 -21.467  0.386E-05  0.195E-06  0.199E-05  0.167E-05
 -21.466  0.412E-05  0.207E-06  0.213E-05  0.179E-05
 -21.465  0.440E-05  0.220E-06  0.227E-05  0.191E-05
 -21.464  0.470E-05  0.234E-06  0.242E-05  0.204E-05
 -21.463  0.502E-05  0.249E-06  0.259E-05  0.218E-05
 -21.462  0.535E-05  0.265E-06  0.276E-05  0.233E-05
 -21.461  0.570E-05  0.281E-06  0.294E-05  0.248E-05
 -21.460  0.608E-05  0.299E-06  0.314E-05  0.265E-05
 -21.459  0.648E-05  0.317E-06  0.334E-05  0.282E-05
 -21.458  0.690E-05  0.336E-06  0.356E-05  0.301E-05
 -21.457  0.735E-05  0.357E-06  0.379E-05  0.320E-05
 -21.456  0.782E-05  0.378E-06  0.403E-05  0.341E-05
 -21.455  0.832E-05  0.401E-06  0.429E-05  0.363E-05
 -21.454  0.885E-05  0.425E-06  0.456E-05  0.386E-05
 -21.453  0.940E-05  0.450E-06  0.485E-05  0.411E-05
 -21.452  0.999E-05  0.476E-06  0.515E-05  0.437E-05
 -21.451  0.106E-04  0.504E-06  0.547E-05  0.464E-05
 -21.450  0.113E-04  0.533E-06  0.581E-05  0.493E-05
 -21.449  0.120E-04  0.564E-06  0.617E-05  0.524E-05
 -21.448  0.127E-04  0.596E-06  0.654E-05  0.556E-05
 -21.447  0.135E-04  0.630E-06  0.694E-05  0.591E-05
 -21.446  0.143E-04  0.665E-06  0.736E-05  0.627E-05
 -21.445  0.151E-04  0.703E-06  0.780E-05  0.664E-05
 -21.444  0.160E-04  0.742E-06  0.826E-05  0.705E-05
 -21.443  0.170E-04  0.782E-06  0.875E-05  0.747E-05
 -21.442  0.180E-04  0.825E-06  0.927E-05  0.791E-05
 -21.441  0.191E-04  0.870E-06  0.981E-05  0.838E-05
 -21.440  0.202E-04  0.917E-06  0.104E-04  0.887E-05
 -21.439  0.213E-04  0.966E-06  0.110E-04  0.939E-05
 -21.438  0.226E-04  0.102E-05  0.116E-04  0.993E-05
 -21.437  0.238E-04  0.107E-05  0.123E-04  0.105E-04
 -21.436  0.252E-04  0.113E-05  0.130E-04  0.111E-04
 -21.435  0.266E-04  0.118E-05  0.137E-04  0.117E-04
 -21.434  0.281E-04  0.125E-05  0.144E-04  0.124E-04
 -21.433  0.297E-04  0.131E-05  0.153E-04  0.131E-04
 -21.432  0.313E-04  0.138E-05  0.161E-04  0.138E-04
 -21.431  0.330E-04  0.145E-05  0.170E-04  0.146E-04
 -21.430  0.348E-04  0.152E-05  0.179E-04  0.154E-04
 -21.429  0.367E-04  0.159E-05  0.189E-04  0.162E-04
 -21.428  0.386E-04  0.167E-05  0.199E-04  0.171E-04
 -21.427  0.407E-04  0.175E-05  0.209E-04  0.180E-04
 -21.426  0.429E-04  0.184E-05  0.220E-04  0.190E-04
 -21.425  0.451E-04  0.193E-05  0.232E-04  0.200E-04
 -21.424  0.475E-04  0.202E-05  0.244E-04  0.211E-04
 -21.423  0.499E-04  0.211E-05  0.257E-04  0.222E-04
 -21.422  0.525E-04  0.221E-05  0.270E-04  0.233E-04
 -21.421  0.552E-04  0.231E-05  0.284E-04  0.245E-04
 -21.420  0.580E-04  0.242E-05  0.298E-04  0.258E-04
 -21.419  0.609E-04  0.253E-05  0.313E-04  0.271E-04
 -21.418  0.640E-04  0.265E-05  0.329E-04  0.285E-04
 -21.417  0.672E-04  0.276E-05  0.345E-04  0.299E-04
 -21.416  0.705E-04  0.289E-05  0.362E-04  0.314E-04
 -21.415  0.739E-04  0.302E-05  0.380E-04  0.330E-04
 -21.414  0.775E-04  0.315E-05  0.398E-04  0.346E-04
 -21.413  0.813E-04  0.328E-05  0.417E-04  0.363E-04
 -21.412  0.852E-04  0.343E-05  0.437E-04  0.380E-04
 -21.411  0.892E-04  0.357E-05  0.458E-04  0.399E-04
 -21.410  0.934E-04  0.372E-05  0.479E-04  0.418E-04
 -21.409  0.978E-04  0.388E-05  0.502E-04  0.438E-04
 -21.408  0.102E-03  0.404E-05  0.525E-04  0.458E-04
 -21.407  0.107E-03  0.421E-05  0.549E-04  0.480E-04
 -21.406  0.112E-03  0.438E-05  0.575E-04  0.502E-04
 -21.405  0.117E-03  0.456E-05  0.601E-04  0.525E-04
 -21.404  0.122E-03  0.474E-05  0.628E-04  0.549E-04
 -21.403  0.128E-03  0.493E-05  0.656E-04  0.574E-04
 -21.402  0.134E-03  0.512E-05  0.685E-04  0.600E-04
 -21.401  0.140E-03  0.532E-05  0.715E-04  0.627E-04
 -21.400  0.146E-03  0.553E-05  0.747E-04  0.655E-04
 -21.399  0.152E-03  0.574E-05  0.779E-04  0.684E-04
 -21.398  0.159E-03  0.596E-05  0.813E-04  0.714E-04
 -21.397  0.165E-03  0.618E-05  0.847E-04  0.745E-04
 -21.396  0.172E-03  0.641E-05  0.883E-04  0.777E-04
 -21.395  0.180E-03  0.665E-05  0.920E-04  0.810E-04
 -21.394  0.187E-03  0.689E-05  0.959E-04  0.844E-04
 -21.393  0.195E-03  0.714E-05  0.999E-04  0.880E-04
 -21.392  0.203E-03  0.740E-05  0.104E-03  0.917E-04
 -21.391  0.211E-03  0.766E-05  0.108E-03  0.955E-04
 -21.390  0.220E-03  0.793E-05  0.113E-03  0.994E-04
 -21.389  0.229E-03  0.820E-05  0.117E-03  0.103E-03
 -21.388  0.238E-03  0.849E-05  0.122E-03  0.108E-03
 -21.387  0.247E-03  0.878E-05  0.127E-03  0.112E-03
 -21.386  0.257E-03  0.907E-05  0.132E-03  0.116E-03
 -21.385  0.267E-03  0.938E-05  0.137E-03  0.121E-03
 -21.384  0.277E-03  0.969E-05  0.142E-03  0.126E-03
 -21.383  0.288E-03  0.100E-04  0.147E-03  0.131E-03
 -21.382  0.299E-03  0.103E-04  0.153E-03  0.136E-03
 -21.381  0.310E-03  0.107E-04  0.159E-03  0.141E-03
 -21.380  0.322E-03  0.110E-04  0.165E-03  0.146E-03
 -21.379  0.334E-03  0.113E-04  0.171E-03  0.152E-03
 -21.378  0.346E-03  0.117E-04  0.177E-03  0.157E-03
 -21.377  0.359E-03  0.121E-04  0.183E-03  0.163E-03
 -21.376  0.372E-03  0.124E-04  0.190E-03  0.169E-03
 -21.375  0.385E-03  0.128E-04  0.197E-03  0.176E-03
 -21.374  0.399E-03  0.132E-04  0.204E-03  0.182E-03
 -21.373  0.413E-03  0.136E-04  0.211E-03  0.188E-03
 -21.372  0.427E-03  0.140E-04  0.218E-03  0.195E-03
 -21.371  0.442E-03  0.144E-04  0.226E-03  0.202E-03
 -21.370  0.457E-03  0.148E-04  0.234E-03  0.209E-03
 -21.369  0.473E-03  0.152E-04  0.242E-03  0.216E-03
 -21.368  0.489E-03  0.156E-04  0.250E-03  0.224E-03
 -21.367  0.505E-03  0.160E-04  0.258E-03  0.231E-03
 -21.366  0.522E-03  0.165E-04  0.267E-03  0.239E-03
 -21.365  0.539E-03  0.169E-04  0.275E-03  0.247E-03
 -21.364  0.557E-03  0.174E-04  0.284E-03  0.255E-03
 -21.363  0.575E-03  0.178E-04  0.293E-03  0.264E-03
 -21.362  0.594E-03  0.183E-04  0.303E-03  0.272E-03
 -21.361  0.613E-03  0.188E-04  0.312E-03  0.281E-03
 -21.360  0.632E-03  0.192E-04  0.322E-03  0.290E-03
 -21.359  0.652E-03  0.197E-04  0.332E-03  0.300E-03
 -21.358  0.672E-03  0.202E-04  0.343E-03  0.309E-03
 -21.357  0.692E-03  0.207E-04  0.353E-03  0.319E-03
 -21.356  0.714E-03  0.212E-04  0.364E-03  0.329E-03
 -21.355  0.735E-03  0.217E-04  0.375E-03  0.339E-03
 -21.354  0.757E-03  0.222E-04  0.386E-03  0.349E-03
 -21.353  0.780E-03  0.227E-04  0.397E-03  0.360E-03
 -21.352  0.802E-03  0.233E-04  0.409E-03  0.370E-03
 -21.351  0.826E-03  0.238E-04  0.421E-03  0.381E-03
 -21.350  0.850E-03  0.243E-04  0.433E-03  0.393E-03
 -21.349  0.874E-03  0.249E-04  0.445E-03  0.404E-03
 -21.348  0.899E-03  0.254E-04  0.458E-03  0.416E-03
 -21.347  0.924E-03  0.260E-04  0.470E-03  0.428E-03
 -21.346  0.950E-03  0.265E-04  0.483E-03  0.440E-03
 -21.345  0.976E-03  0.271E-04  0.497E-03  0.452E-03
 -21.344  0.100E-02  0.276E-04  0.510E-03  0.465E-03
 -21.343  0.103E-02  0.282E-04  0.524E-03  0.477E-03
 -21.342  0.106E-02  0.288E-04  0.538E-03  0.490E-03
 -21.341  0.109E-02  0.293E-04  0.552E-03  0.504E-03
 -21.340  0.111E-02  0.299E-04  0.566E-03  0.517E-03
 -21.339  0.114E-02  0.305E-04  0.581E-03  0.531E-03
 -21.338  0.117E-02  0.311E-04  0.596E-03  0.545E-03
 -21.337  0.120E-02  0.317E-04  0.611E-03  0.559E-03
 -21.336  0.123E-02  0.323E-04  0.627E-03  0.574E-03
 -21.335  0.126E-02  0.328E-04  0.642E-03  0.588E-03
 -21.334  0.129E-02  0.334E-04  0.658E-03  0.603E-03
 -21.333  0.133E-02  0.340E-04  0.674E-03  0.619E-03
 -21.332  0.136E-02  0.346E-04  0.690E-03  0.634E-03
 -21.331  0.139E-02  0.352E-04  0.707E-03  0.650E-03
 -21.330  0.143E-02  0.358E-04  0.724E-03  0.665E-03
 -21.329  0.146E-02  0.365E-04  0.741E-03  0.682E-03
 -21.328  0.149E-02  0.371E-04  0.758E-03  0.698E-03
 -21.327  0.153E-02  0.377E-04  0.776E-03  0.714E-03
 -21.326  0.156E-02  0.383E-04  0.793E-03  0.731E-03
 -21.325  0.160E-02  0.389E-04  0.811E-03  0.748E-03
 -21.324  0.163E-02  0.395E-04  0.829E-03  0.766E-03
 -21.323  0.167E-02  0.401E-04  0.848E-03  0.783E-03
 -21.322  0.171E-02  0.407E-04  0.866E-03  0.801E-03
 -21.321  0.175E-02  0.413E-04  0.885E-03  0.819E-03
 -21.320  0.178E-02  0.420E-04  0.904E-03  0.837E-03
 -21.319  0.182E-02  0.426E-04  0.924E-03  0.855E-03
 -21.318  0.186E-02  0.432E-04  0.943E-03  0.874E-03
 -21.317  0.190E-02  0.438E-04  0.963E-03  0.893E-03
 -21.316  0.194E-02  0.444E-04  0.983E-03  0.912E-03
 -21.315  0.198E-02  0.450E-04  0.100E-02  0.931E-03
 -21.314  0.202E-02  0.456E-04  0.102E-02  0.951E-03
 -21.313  0.206E-02  0.462E-04  0.104E-02  0.970E-03
 -21.312  0.210E-02  0.469E-04  0.106E-02  0.990E-03
 -21.311  0.214E-02  0.475E-04  0.109E-02  0.101E-02
 -21.310  0.219E-02  0.481E-04  0.111E-02  0.103E-02
 -21.309  0.223E-02  0.487E-04  0.113E-02  0.105E-02
 -21.308  0.227E-02  0.493E-04  0.115E-02  0.107E-02
 -21.307  0.231E-02  0.499E-04  0.117E-02  0.109E-02
 -21.306  0.236E-02  0.505E-04  0.119E-02  0.111E-02
 -21.305  0.240E-02  0.511E-04  0.122E-02  0.114E-02
 -21.304  0.245E-02  0.517E-04  0.124E-02  0.116E-02
 -21.303  0.249E-02  0.523E-04  0.126E-02  0.118E-02
 -21.302  0.254E-02  0.528E-04  0.128E-02  0.120E-02
 -21.301  0.258E-02  0.534E-04  0.131E-02  0.122E-02
 -21.300  0.263E-02  0.540E-04  0.133E-02  0.124E-02
 -21.299  0.267E-02  0.546E-04  0.135E-02  0.127E-02
 -21.298  0.272E-02  0.552E-04  0.137E-02  0.129E-02
 -21.297  0.277E-02  0.558E-04  0.140E-02  0.131E-02
 -21.296  0.281E-02  0.563E-04  0.142E-02  0.133E-02
 -21.295  0.286E-02  0.569E-04  0.144E-02  0.136E-02
 -21.294  0.291E-02  0.575E-04  0.147E-02  0.138E-02
 -21.293  0.296E-02  0.580E-04  0.149E-02  0.140E-02
 -21.292  0.300E-02  0.586E-04  0.152E-02  0.143E-02
 -21.291  0.305E-02  0.592E-04  0.154E-02  0.145E-02
 -21.290  0.310E-02  0.597E-04  0.157E-02  0.148E-02
 -21.289  0.315E-02  0.603E-04  0.159E-02  0.150E-02
 -21.288  0.320E-02  0.608E-04  0.161E-02  0.152E-02
 -21.287  0.325E-02  0.614E-04  0.164E-02  0.155E-02
 -21.286  0.330E-02  0.619E-04  0.166E-02  0.157E-02
 -21.285  0.335E-02  0.624E-04  0.169E-02  0.160E-02
 -21.284  0.340E-02  0.630E-04  0.171E-02  0.162E-02
 -21.283  0.345E-02  0.635E-04  0.174E-02  0.165E-02
 -21.282  0.350E-02  0.640E-04  0.177E-02  0.167E-02
 -21.281  0.355E-02  0.646E-04  0.179E-02  0.170E-02
 -21.280  0.360E-02  0.651E-04  0.182E-02  0.172E-02
 -21.279  0.365E-02  0.656E-04  0.184E-02  0.175E-02
 -21.278  0.370E-02  0.661E-04  0.187E-02  0.177E-02
 -21.277  0.376E-02  0.666E-04  0.189E-02  0.180E-02
 -21.276  0.381E-02  0.671E-04  0.192E-02  0.182E-02
 -21.275  0.386E-02  0.676E-04  0.194E-02  0.185E-02
 -21.274  0.391E-02  0.681E-04  0.197E-02  0.187E-02
 -21.273  0.396E-02  0.686E-04  0.200E-02  0.190E-02
 -21.272  0.402E-02  0.691E-04  0.202E-02  0.192E-02
 -21.271  0.407E-02  0.696E-04  0.205E-02  0.195E-02
 -21.270  0.412E-02  0.701E-04  0.208E-02  0.198E-02
 -21.269  0.417E-02  0.706E-04  0.210E-02  0.200E-02
 -21.268  0.423E-02  0.711E-04  0.213E-02  0.203E-02
 -21.267  0.428E-02  0.716E-04  0.215E-02  0.205E-02
 -21.266  0.433E-02  0.720E-04  0.218E-02  0.208E-02
 -21.265  0.439E-02  0.725E-04  0.221E-02  0.211E-02
 -21.264  0.444E-02  0.730E-04  0.223E-02  0.213E-02
 -21.263  0.449E-02  0.734E-04  0.226E-02  0.216E-02
 -21.262  0.454E-02  0.739E-04  0.229E-02  0.218E-02
 -21.261  0.460E-02  0.744E-04  0.231E-02  0.221E-02
 -21.260  0.465E-02  0.748E-04  0.234E-02  0.224E-02
 -21.259  0.471E-02  0.753E-04  0.237E-02  0.226E-02
 -21.258  0.476E-02  0.757E-04  0.239E-02  0.229E-02
 -21.257  0.481E-02  0.762E-04  0.242E-02  0.232E-02
 -21.256  0.487E-02  0.766E-04  0.245E-02  0.234E-02
 -21.255  0.492E-02  0.771E-04  0.247E-02  0.237E-02
 -21.254  0.497E-02  0.775E-04  0.250E-02  0.239E-02
 -21.253  0.503E-02  0.780E-04  0.253E-02  0.242E-02
 -21.252  0.508E-02  0.784E-04  0.255E-02  0.245E-02
 -21.251  0.513E-02  0.788E-04  0.258E-02  0.247E-02
 -21.250  0.519E-02  0.793E-04  0.261E-02  0.250E-02
 -21.249  0.524E-02  0.797E-04  0.263E-02  0.253E-02
 -21.248  0.530E-02  0.801E-04  0.266E-02  0.255E-02
 -21.247  0.535E-02  0.806E-04  0.269E-02  0.258E-02
 -21.246  0.540E-02  0.810E-04  0.271E-02  0.261E-02
 -21.245  0.546E-02  0.814E-04  0.274E-02  0.263E-02
 -21.244  0.551E-02  0.818E-04  0.277E-02  0.266E-02
 -21.243  0.556E-02  0.822E-04  0.279E-02  0.269E-02
 -21.242  0.562E-02  0.827E-04  0.282E-02  0.271E-02
 -21.241  0.567E-02  0.831E-04  0.285E-02  0.274E-02
 -21.240  0.572E-02  0.835E-04  0.287E-02  0.276E-02
 -21.239  0.578E-02  0.839E-04  0.290E-02  0.279E-02
 -21.238  0.583E-02  0.843E-04  0.293E-02  0.282E-02
 -21.237  0.588E-02  0.847E-04  0.295E-02  0.284E-02
 -21.236  0.594E-02  0.852E-04  0.298E-02  0.287E-02
 -21.235  0.599E-02  0.856E-04  0.301E-02  0.290E-02
 -21.234  0.604E-02  0.860E-04  0.303E-02  0.292E-02
 -21.233  0.609E-02  0.864E-04  0.306E-02  0.295E-02
 -21.232  0.615E-02  0.868E-04  0.309E-02  0.297E-02
 -21.231  0.620E-02  0.872E-04  0.311E-02  0.300E-02
 -21.230  0.625E-02  0.876E-04  0.314E-02  0.303E-02
 -21.229  0.630E-02  0.880E-04  0.317E-02  0.305E-02
 -21.228  0.636E-02  0.884E-04  0.319E-02  0.308E-02
 -21.227  0.641E-02  0.888E-04  0.322E-02  0.310E-02
 -21.226  0.646E-02  0.892E-04  0.324E-02  0.313E-02
 -21.225  0.651E-02  0.896E-04  0.327E-02  0.315E-02
 -21.224  0.656E-02  0.900E-04  0.330E-02  0.318E-02
 -21.223  0.662E-02  0.904E-04  0.332E-02  0.320E-02
 -21.222  0.667E-02  0.908E-04  0.335E-02  0.323E-02
 -21.221  0.672E-02  0.912E-04  0.337E-02  0.326E-02
 -21.220  0.677E-02  0.916E-04  0.340E-02  0.328E-02
 -21.219  0.682E-02  0.920E-04  0.342E-02  0.331E-02
 -21.218  0.687E-02  0.924E-04  0.345E-02  0.333E-02
 -21.217  0.692E-02  0.928E-04  0.347E-02  0.336E-02
 -21.216  0.697E-02  0.932E-04  0.350E-02  0.338E-02
 -21.215  0.703E-02  0.936E-04  0.353E-02  0.341E-02
 -21.214  0.708E-02  0.940E-04  0.355E-02  0.343E-02
 -21.213  0.713E-02  0.944E-04  0.358E-02  0.346E-02
 -21.212  0.718E-02  0.948E-04  0.360E-02  0.348E-02
 -21.211  0.723E-02  0.952E-04  0.363E-02  0.350E-02
 -21.210  0.728E-02  0.956E-04  0.365E-02  0.353E-02
 -21.209  0.733E-02  0.960E-04  0.368E-02  0.355E-02
 -21.208  0.738E-02  0.964E-04  0.370E-02  0.358E-02
 -21.207  0.743E-02  0.968E-04  0.373E-02  0.360E-02
 -21.206  0.747E-02  0.972E-04  0.375E-02  0.363E-02
 -21.205  0.752E-02  0.976E-04  0.378E-02  0.365E-02
 -21.204  0.757E-02  0.980E-04  0.380E-02  0.367E-02
 -21.203  0.762E-02  0.984E-04  0.382E-02  0.370E-02
 -21.202  0.767E-02  0.988E-04  0.385E-02  0.372E-02
 -21.201  0.772E-02  0.992E-04  0.387E-02  0.375E-02
 -21.200  0.777E-02  0.996E-04  0.390E-02  0.377E-02
 -21.199  0.782E-02  0.100E-03  0.392E-02  0.379E-02
 -21.198  0.786E-02  0.100E-03  0.395E-02  0.382E-02
 -21.197  0.791E-02  0.101E-03  0.397E-02  0.384E-02
 -21.196  0.796E-02  0.101E-03  0.399E-02  0.386E-02
 -21.195  0.801E-02  0.102E-03  0.402E-02  0.389E-02
 -21.194  0.805E-02  0.102E-03  0.404E-02  0.391E-02
 -21.193  0.810E-02  0.102E-03  0.407E-02  0.393E-02
 -21.192  0.815E-02  0.103E-03  0.409E-02  0.396E-02
 -21.191  0.820E-02  0.103E-03  0.411E-02  0.398E-02
 -21.190  0.824E-02  0.104E-03  0.414E-02  0.400E-02
 -21.189  0.829E-02  0.104E-03  0.416E-02  0.403E-02
 -21.188  0.834E-02  0.104E-03  0.418E-02  0.405E-02
 -21.187  0.838E-02  0.105E-03  0.421E-02  0.407E-02
 -21.186  0.843E-02  0.105E-03  0.423E-02  0.409E-02
 -21.185  0.848E-02  0.106E-03  0.425E-02  0.412E-02
 -21.184  0.852E-02  0.106E-03  0.428E-02  0.414E-02
 -21.183  0.857E-02  0.106E-03  0.430E-02  0.416E-02
 -21.182  0.861E-02  0.107E-03  0.432E-02  0.418E-02
 -21.181  0.866E-02  0.107E-03  0.435E-02  0.421E-02
 -21.180  0.870E-02  0.108E-03  0.437E-02  0.423E-02
 -21.179  0.875E-02  0.108E-03  0.439E-02  0.425E-02
 -21.178  0.880E-02  0.108E-03  0.442E-02  0.427E-02
 -21.177  0.884E-02  0.109E-03  0.444E-02  0.429E-02
 -21.176  0.889E-02  0.109E-03  0.446E-02  0.432E-02
 -21.175  0.893E-02  0.110E-03  0.448E-02  0.434E-02
 -21.174  0.897E-02  0.110E-03  0.451E-02  0.436E-02
 -21.173  0.902E-02  0.110E-03  0.453E-02  0.438E-02
 -21.172  0.906E-02  0.111E-03  0.455E-02  0.440E-02
 -21.171  0.911E-02  0.111E-03  0.457E-02  0.442E-02
 -21.170  0.915E-02  0.112E-03  0.459E-02  0.445E-02
 -21.169  0.920E-02  0.112E-03  0.462E-02  0.447E-02
 -21.168  0.924E-02  0.113E-03  0.464E-02  0.449E-02
 -21.167  0.928E-02  0.113E-03  0.466E-02  0.451E-02
 -21.166  0.933E-02  0.113E-03  0.468E-02  0.453E-02
 -21.165  0.937E-02  0.114E-03  0.471E-02  0.455E-02
 -21.164  0.942E-02  0.114E-03  0.473E-02  0.457E-02
 -21.163  0.946E-02  0.115E-03  0.475E-02  0.460E-02
 -21.162  0.950E-02  0.115E-03  0.477E-02  0.462E-02
 -21.161  0.955E-02  0.115E-03  0.479E-02  0.464E-02
 -21.160  0.959E-02  0.116E-03  0.481E-02  0.466E-02
 -21.159  0.963E-02  0.116E-03  0.484E-02  0.468E-02
 -21.158  0.968E-02  0.117E-03  0.486E-02  0.470E-02
 -21.157  0.972E-02  0.117E-03  0.488E-02  0.472E-02
 -21.156  0.976E-02  0.117E-03  0.490E-02  0.474E-02
 -21.155  0.980E-02  0.118E-03  0.492E-02  0.476E-02
 -21.154  0.985E-02  0.118E-03  0.494E-02  0.478E-02
 -21.153  0.989E-02  0.119E-03  0.497E-02  0.481E-02
 -21.152  0.993E-02  0.119E-03  0.499E-02  0.483E-02
 -21.151  0.998E-02  0.120E-03  0.501E-02  0.485E-02
 -21.150  0.100E-01  0.120E-03  0.503E-02  0.487E-02
 -21.149  0.101E-01  0.120E-03  0.505E-02  0.489E-02
 -21.148  0.101E-01  0.121E-03  0.507E-02  0.491E-02
 -21.147  0.101E-01  0.121E-03  0.509E-02  0.493E-02
 -21.146  0.102E-01  0.122E-03  0.512E-02  0.495E-02
 -21.145  0.102E-01  0.122E-03  0.514E-02  0.497E-02
 -21.144  0.103E-01  0.122E-03  0.516E-02  0.499E-02
 -21.143  0.103E-01  0.123E-03  0.518E-02  0.501E-02
 -21.142  0.104E-01  0.123E-03  0.520E-02  0.503E-02
 -21.141  0.104E-01  0.124E-03  0.522E-02  0.506E-02
 -21.140  0.104E-01  0.124E-03  0.524E-02  0.508E-02
 -21.139  0.105E-01  0.124E-03  0.526E-02  0.510E-02
 -21.138  0.105E-01  0.125E-03  0.529E-02  0.512E-02
 -21.137  0.106E-01  0.125E-03  0.531E-02  0.514E-02
 -21.136  0.106E-01  0.126E-03  0.533E-02  0.516E-02
 -21.135  0.107E-01  0.126E-03  0.535E-02  0.518E-02
 -21.134  0.107E-01  0.126E-03  0.537E-02  0.520E-02
 -21.133  0.107E-01  0.127E-03  0.539E-02  0.522E-02
 -21.132  0.108E-01  0.127E-03  0.541E-02  0.524E-02
 -21.131  0.108E-01  0.128E-03  0.543E-02  0.526E-02
 -21.130  0.109E-01  0.128E-03  0.545E-02  0.528E-02
 -21.129  0.109E-01  0.128E-03  0.548E-02  0.531E-02
 -21.128  0.110E-01  0.129E-03  0.550E-02  0.533E-02
 -21.127  0.110E-01  0.129E-03  0.552E-02  0.535E-02
 -21.126  0.110E-01  0.130E-03  0.554E-02  0.537E-02
 -21.125  0.111E-01  0.130E-03  0.556E-02  0.539E-02
 -21.124  0.111E-01  0.130E-03  0.558E-02  0.541E-02
 -21.123  0.112E-01  0.131E-03  0.560E-02  0.543E-02
 -21.122  0.112E-01  0.131E-03  0.562E-02  0.545E-02
 -21.121  0.112E-01  0.132E-03  0.564E-02  0.547E-02
 -21.120  0.113E-01  0.132E-03  0.566E-02  0.549E-02
 -21.119  0.113E-01  0.132E-03  0.569E-02  0.552E-02
 -21.118  0.114E-01  0.133E-03  0.571E-02  0.554E-02
 -21.117  0.114E-01  0.133E-03  0.573E-02  0.556E-02
 -21.116  0.115E-01  0.134E-03  0.575E-02  0.558E-02
 -21.115  0.115E-01  0.134E-03  0.577E-02  0.560E-02
 -21.114  0.115E-01  0.134E-03  0.579E-02  0.562E-02
 -21.113  0.116E-01  0.135E-03  0.581E-02  0.564E-02
 -21.112  0.116E-01  0.135E-03  0.583E-02  0.567E-02
 -21.111  0.117E-01  0.136E-03  0.586E-02  0.569E-02
 -21.110  0.117E-01  0.136E-03  0.588E-02  0.571E-02
 -21.109  0.118E-01  0.136E-03  0.590E-02  0.573E-02
 -21.108  0.118E-01  0.137E-03  0.592E-02  0.575E-02
 -21.107  0.119E-01  0.137E-03  0.594E-02  0.577E-02
 -21.106  0.119E-01  0.138E-03  0.596E-02  0.579E-02
 -21.105  0.119E-01  0.138E-03  0.598E-02  0.582E-02
 -21.104  0.120E-01  0.138E-03  0.600E-02  0.584E-02
 -21.103  0.120E-01  0.139E-03  0.603E-02  0.586E-02
 -21.102  0.121E-01  0.139E-03  0.605E-02  0.588E-02
 -21.101  0.121E-01  0.139E-03  0.607E-02  0.590E-02
 -21.100  0.122E-01  0.140E-03  0.609E-02  0.592E-02
 -21.099  0.122E-01  0.140E-03  0.611E-02  0.595E-02
 -21.098  0.122E-01  0.141E-03  0.613E-02  0.597E-02
 -21.097  0.123E-01  0.141E-03  0.615E-02  0.599E-02
 -21.096  0.123E-01  0.141E-03  0.617E-02  0.601E-02
 -21.095  0.124E-01  0.142E-03  0.620E-02  0.603E-02
 -21.094  0.124E-01  0.142E-03  0.622E-02  0.606E-02
 -21.093  0.125E-01  0.143E-03  0.624E-02  0.608E-02
 -21.092  0.125E-01  0.143E-03  0.626E-02  0.610E-02
 -21.091  0.125E-01  0.143E-03  0.628E-02  0.612E-02
 -21.090  0.126E-01  0.144E-03  0.630E-02  0.614E-02
 -21.089  0.126E-01  0.144E-03  0.632E-02  0.617E-02
 -21.088  0.127E-01  0.144E-03  0.635E-02  0.619E-02
 -21.087  0.127E-01  0.145E-03  0.637E-02  0.621E-02
 -21.086  0.128E-01  0.145E-03  0.639E-02  0.623E-02
 -21.085  0.128E-01  0.146E-03  0.641E-02  0.625E-02
 -21.084  0.129E-01  0.146E-03  0.643E-02  0.628E-02
 -21.083  0.129E-01  0.146E-03  0.645E-02  0.630E-02
 -21.082  0.129E-01  0.147E-03  0.648E-02  0.632E-02
 -21.081  0.130E-01  0.147E-03  0.650E-02  0.634E-02
 -21.080  0.130E-01  0.147E-03  0.652E-02  0.636E-02
 -21.079  0.131E-01  0.148E-03  0.654E-02  0.639E-02
 -21.078  0.131E-01  0.148E-03  0.656E-02  0.641E-02
 -21.077  0.132E-01  0.149E-03  0.658E-02  0.643E-02
 -21.076  0.132E-01  0.149E-03  0.660E-02  0.645E-02
 -21.075  0.133E-01  0.149E-03  0.663E-02  0.648E-02
 -21.074  0.133E-01  0.150E-03  0.665E-02  0.650E-02
 -21.073  0.133E-01  0.150E-03  0.667E-02  0.652E-02
 -21.072  0.134E-01  0.150E-03  0.669E-02  0.654E-02
 -21.071  0.134E-01  0.151E-03  0.671E-02  0.656E-02
 -21.070  0.135E-01  0.151E-03  0.673E-02  0.659E-02
 -21.069  0.135E-01  0.152E-03  0.676E-02  0.661E-02
 -21.068  0.136E-01  0.152E-03  0.678E-02  0.663E-02
 -21.067  0.136E-01  0.152E-03  0.680E-02  0.665E-02
 -21.066  0.136E-01  0.153E-03  0.682E-02  0.667E-02
 -21.065  0.137E-01  0.153E-03  0.684E-02  0.670E-02
 -21.064  0.137E-01  0.153E-03  0.686E-02  0.672E-02
 -21.063  0.138E-01  0.154E-03  0.689E-02  0.674E-02
 -21.062  0.138E-01  0.154E-03  0.691E-02  0.676E-02
 -21.061  0.139E-01  0.154E-03  0.693E-02  0.678E-02
 -21.060  0.139E-01  0.155E-03  0.695E-02  0.681E-02
 -21.059  0.140E-01  0.155E-03  0.697E-02  0.683E-02
 -21.058  0.140E-01  0.156E-03  0.699E-02  0.685E-02
 -21.057  0.140E-01  0.156E-03  0.701E-02  0.687E-02
 -21.056  0.141E-01  0.156E-03  0.704E-02  0.689E-02
 -21.055  0.141E-01  0.157E-03  0.706E-02  0.692E-02
 -21.054  0.142E-01  0.157E-03  0.708E-02  0.694E-02
 -21.053  0.142E-01  0.157E-03  0.710E-02  0.696E-02
 -21.052  0.143E-01  0.158E-03  0.712E-02  0.698E-02
 -21.051  0.143E-01  0.158E-03  0.714E-02  0.700E-02
 -21.050  0.143E-01  0.159E-03  0.717E-02  0.702E-02
 -21.049  0.144E-01  0.159E-03  0.719E-02  0.705E-02
 -21.048  0.144E-01  0.159E-03  0.721E-02  0.707E-02
 -21.047  0.145E-01  0.160E-03  0.723E-02  0.709E-02
 -21.046  0.145E-01  0.160E-03  0.725E-02  0.711E-02
 -21.045  0.146E-01  0.160E-03  0.727E-02  0.713E-02
 -21.044  0.146E-01  0.161E-03  0.729E-02  0.715E-02
 -21.043  0.147E-01  0.161E-03  0.732E-02  0.718E-02
 -21.042  0.147E-01  0.161E-03  0.734E-02  0.720E-02
 -21.041  0.147E-01  0.162E-03  0.736E-02  0.722E-02
 -21.040  0.148E-01  0.162E-03  0.738E-02  0.724E-02
 -21.039  0.148E-01  0.163E-03  0.740E-02  0.726E-02
 -21.038  0.149E-01  0.163E-03  0.742E-02  0.728E-02
 -21.037  0.149E-01  0.163E-03  0.744E-02  0.730E-02
 -21.036  0.150E-01  0.164E-03  0.747E-02  0.732E-02
 -21.035  0.150E-01  0.164E-03  0.749E-02  0.735E-02
 -21.034  0.150E-01  0.164E-03  0.751E-02  0.737E-02
 -21.033  0.151E-01  0.165E-03  0.753E-02  0.739E-02
 -21.032  0.151E-01  0.165E-03  0.755E-02  0.741E-02
 -21.031  0.152E-01  0.165E-03  0.757E-02  0.743E-02
 -21.030  0.152E-01  0.166E-03  0.759E-02  0.745E-02
 -21.029  0.153E-01  0.166E-03  0.761E-02  0.747E-02
 -21.028  0.153E-01  0.166E-03  0.764E-02  0.749E-02
 -21.027  0.153E-01  0.167E-03  0.766E-02  0.751E-02
 -21.026  0.154E-01  0.167E-03  0.768E-02  0.753E-02
 -21.025  0.154E-01  0.168E-03  0.770E-02  0.756E-02
 -21.024  0.155E-01  0.168E-03  0.772E-02  0.758E-02
 -21.023  0.155E-01  0.168E-03  0.774E-02  0.760E-02
 -21.022  0.155E-01  0.169E-03  0.776E-02  0.762E-02
 -21.021  0.156E-01  0.169E-03  0.778E-02  0.764E-02
 -21.020  0.156E-01  0.169E-03  0.780E-02  0.766E-02
 -21.019  0.157E-01  0.170E-03  0.783E-02  0.768E-02
 -21.018  0.157E-01  0.170E-03  0.785E-02  0.770E-02
 -21.017  0.158E-01  0.170E-03  0.787E-02  0.772E-02
 -21.016  0.158E-01  0.171E-03  0.789E-02  0.774E-02
 -21.015  0.158E-01  0.171E-03  0.791E-02  0.776E-02
 -21.014  0.159E-01  0.172E-03  0.793E-02  0.778E-02
 -21.013  0.159E-01  0.172E-03  0.795E-02  0.780E-02
 -21.012  0.160E-01  0.172E-03  0.797E-02  0.782E-02
 -21.011  0.160E-01  0.173E-03  0.799E-02  0.784E-02
 -21.010  0.160E-01  0.173E-03  0.801E-02  0.786E-02
 -21.009  0.161E-01  0.173E-03  0.803E-02  0.788E-02
 -21.008  0.161E-01  0.174E-03  0.805E-02  0.790E-02
 -21.007  0.162E-01  0.174E-03  0.808E-02  0.792E-02
 -21.006  0.162E-01  0.174E-03  0.810E-02  0.794E-02
 -21.005  0.163E-01  0.175E-03  0.812E-02  0.796E-02
 -21.004  0.163E-01  0.175E-03  0.814E-02  0.798E-02
 -21.003  0.163E-01  0.176E-03  0.816E-02  0.800E-02
 -21.002  0.164E-01  0.176E-03  0.818E-02  0.802E-02
 -21.001  0.164E-01  0.176E-03  0.820E-02  0.804E-02
 -21.000  0.165E-01  0.177E-03  0.822E-02  0.806E-02
 -20.999  0.165E-01  0.177E-03  0.824E-02  0.808E-02
 -20.998  0.165E-01  0.177E-03  0.826E-02  0.810E-02
 -20.997  0.166E-01  0.178E-03  0.828E-02  0.812E-02
 -20.996  0.166E-01  0.178E-03  0.830E-02  0.814E-02
 -20.995  0.167E-01  0.178E-03  0.832E-02  0.816E-02
 -20.994  0.167E-01  0.179E-03  0.834E-02  0.818E-02
 -20.993  0.167E-01  0.179E-03  0.836E-02  0.820E-02
 -20.992  0.168E-01  0.180E-03  0.838E-02  0.822E-02
 -20.991  0.168E-01  0.180E-03  0.840E-02  0.824E-02
 -20.990  0.169E-01  0.180E-03  0.842E-02  0.825E-02
 -20.989  0.169E-01  0.181E-03  0.844E-02  0.827E-02
 -20.988  0.169E-01  0.181E-03  0.846E-02  0.829E-02
 -20.987  0.170E-01  0.181E-03  0.848E-02  0.831E-02
 -20.986  0.170E-01  0.182E-03  0.850E-02  0.833E-02
 -20.985  0.171E-01  0.182E-03  0.852E-02  0.835E-02
 -20.984  0.171E-01  0.182E-03  0.854E-02  0.837E-02
 -20.983  0.171E-01  0.183E-03  0.856E-02  0.839E-02
 -20.982  0.172E-01  0.183E-03  0.858E-02  0.841E-02
 -20.981  0.172E-01  0.184E-03  0.860E-02  0.842E-02
 -20.980  0.172E-01  0.184E-03  0.862E-02  0.844E-02
 -20.979  0.173E-01  0.184E-03  0.864E-02  0.846E-02