# E (eV)   ldos(E)   pdos(E)    pdos(E)    pdos(E)   
 -21.543  0.512E-07  0.456E-07  0.281E-08  0.281E-08
 -21.542  0.562E-07  0.500E-07  0.309E-08  0.309E-08
 -21.541  0.617E-07  0.549E-07  0.340E-08  0.340E-08
 -21.540  0.676E-07  0.601E-07  0.374E-08  0.374E-08
 -21.539  0.741E-07  0.659E-07  0.412E-08  0.412E-08
 -21.538  0.812E-07  0.721E-07  0.453E-08  0.453E-08
 -21.537  0.889E-07  0.789E-07  0.498E-08  0.498E-08
 -21.536  0.973E-07  0.864E-07  0.547E-08  0.547E-08
 -21.535  0.106E-06  0.945E-07  0.600E-08  0.600E-08
 -21.534  0.116E-06  0.103E-06  0.659E-08  0.659E-08
 -21.533  0.127E-06  0.113E-06  0.723E-08  0.723E-08
 -21.532  0.139E-06  0.123E-06  0.793E-08  0.793E-08
 -21.531  0.152E-06  0.135E-06  0.870E-08  0.870E-08
 -21.530  0.166E-06  0.147E-06  0.954E-08  0.954E-08
 -21.529  0.181E-06  0.160E-06  0.104E-07  0.104E-07
 -21.528  0.198E-06  0.175E-06  0.114E-07  0.114E-07
 -21.527  0.216E-06  0.191E-06  0.125E-07  0.125E-07
 -21.526  0.235E-06  0.208E-06  0.137E-07  0.137E-07
 -21.525  0.256E-06  0.226E-06  0.150E-07  0.150E-07
 -21.524  0.279E-06  0.246E-06  0.164E-07  0.164E-07
 -21.523  0.304E-06  0.268E-06  0.179E-07  0.179E-07
 -21.522  0.331E-06  0.292E-06  0.196E-07  0.196E-07
 -21.521  0.360E-06  0.317E-06  0.214E-07  0.214E-07
 -21.520  0.391E-06  0.345E-06  0.233E-07  0.233E-07
 -21.519  0.425E-06  0.374E-06  0.255E-07  0.255E-07
 -21.518  0.462E-06  0.407E-06  0.278E-07  0.278E-07
 -21.517  0.502E-06  0.442E-06  0.303E-07  0.303E-07
 -21.516  0.545E-06  0.479E-06  0.330E-07  0.330E-07
 -21.515  0.592E-06  0.520E-06  0.360E-07  0.360E-07
 -21.514  0.642E-06  0.564E-06  0.392E-07  0.392E-07
 -21.513  0.696E-06  0.611E-06  0.427E-07  0.427E-07
 -21.512  0.755E-06  0.662E-06  0.464E-07  0.464E-07
 -21.511  0.818E-06  0.717E-06  0.505E-07  0.505E-07
 -21.510  0.886E-06  0.776E-06  0.549E-07  0.549E-07
 -21.509  0.959E-06  0.840E-06  0.597E-07  0.597E-07
 -21.508  0.104E-05  0.908E-06  0.649E-07  0.649E-07
 -21.507  0.112E-05  0.982E-06  0.705E-07  0.705E-07
 -21.506  0.121E-05  0.106E-05  0.765E-07  0.765E-07
 -21.505  0.131E-05  0.115E-05  0.830E-07  0.830E-07
 -21.504  0.142E-05  0.124E-05  0.901E-07  0.901E-07
 -21.503  0.153E-05  0.134E-05  0.977E-07  0.977E-07
 -21.502  0.165E-05  0.144E-05  0.106E-06  0.106E-06
 -21.501  0.178E-05  0.156E-05  0.115E-06  0.115E-06
 -21.500  0.193E-05  0.168E-05  0.124E-06  0.124E-06
 -21.499  0.208E-05  0.181E-05  0.135E-06  0.135E-06
 -21.498  0.224E-05  0.195E-05  0.146E-06  0.146E-06
 -21.497  0.241E-05  0.210E-05  0.158E-06  0.158E-06
 -21.496  0.260E-05  0.226E-05  0.170E-06  0.170E-06
 -21.495  0.280E-05  0.243E-05  0.184E-06  0.184E-06
 -21.494  0.301E-05  0.261E-05  0.199E-06  0.199E-06
 -21.493  0.324E-05  0.281E-05  0.215E-06  0.215E-06
 -21.492  0.348E-05  0.302E-05  0.232E-06  0.232E-06
 -21.491  0.374E-05  0.324E-05  0.251E-06  0.251E-06
 -21.490  0.402E-05  0.348E-05  0.271E-06  0.271E-06
 -21.489  0.432E-05  0.374E-05  0.292E-06  0.292E-06
 -21.488  0.464E-05  0.401E-05  0.315E-06  0.315E-06
 -21.487  0.498E-05  0.430E-05  0.339E-06  0.339E-06
 -21.486  0.534E-05  0.461E-05  0.366E-06  0.366E-06
 -21.485  0.573E-05  0.494E-05  0.394E-06  0.394E-06
 -21.484  0.614E-05  0.529E-05  0.424E-06  0.424E-06
 -21.483  0.658E-05  0.566E-05  0.456E-06  0.456E-06
 -21.482  0.704E-05  0.606E-05  0.491E-06  0.491E-06
 -21.481  0.754E-05  0.649E-05  0.528E-06  0.528E-06
 -21.480  0.807E-05  0.694E-05  0.567E-06  0.567E-06
 -21.479  0.864E-05  0.742E-05  0.609E-06  0.609E-06
 -21.478  0.923E-05  0.793E-05  0.655E-06  0.655E-06
 -21.477  0.987E-05  0.847E-05  0.703E-06  0.703E-06
 -21.476  0.105E-04  0.904E-05  0.754E-06  0.754E-06
 -21.475  0.113E-04  0.965E-05  0.809E-06  0.809E-06
 -21.474  0.120E-04  0.103E-04  0.868E-06  0.868E-06
 -21.473  0.128E-04  0.110E-04  0.931E-06  0.931E-06
 -21.472  0.137E-04  0.117E-04  0.997E-06  0.997E-06
 -21.471  0.146E-04  0.125E-04  0.107E-05  0.107E-05
 -21.470  0.156E-04  0.133E-04  0.114E-05  0.114E-05
 -21.469  0.166E-04  0.141E-04  0.122E-05  0.122E-05
 -21.468  0.177E-04  0.151E-04  0.131E-05  0.131E-05
 -21.467  0.188E-04  0.160E-04  0.140E-05  0.140E-05
 -21.466  0.200E-04  0.170E-04  0.150E-05  0.150E-05
 -21.465  0.213E-04  0.181E-04  0.160E-05  0.160E-05
 -21.464  0.227E-04  0.192E-04  0.171E-05  0.171E-05
 -21.463  0.241E-04  0.204E-04  0.183E-05  0.183E-05
 -21.462  0.256E-04  0.217E-04  0.195E-05  0.195E-05
 -21.461  0.272E-04  0.230E-04  0.208E-05  0.208E-05
 -21.460  0.289E-04  0.245E-04  0.222E-05  0.222E-05
 -21.459  0.307E-04  0.259E-04  0.237E-05  0.237E-05
 -21.458  0.325E-04  0.275E-04  0.253E-05  0.253E-05
 -21.457  0.345E-04  0.291E-04  0.269E-05  0.269E-05
 -21.456  0.366E-04  0.309E-04  0.287E-05  0.287E-05
 -21.455  0.388E-04  0.327E-04  0.306E-05  0.306E-05
 -21.454  0.411E-04  0.346E-04  0.325E-05  0.325E-05
 -21.453  0.435E-04  0.366E-04  0.346E-05  0.346E-05
 -21.452  0.461E-04  0.387E-04  0.368E-05  0.368E-05
 -21.451  0.488E-04  0.409E-04  0.392E-05  0.392E-05
 -21.450  0.516E-04  0.433E-04  0.416E-05  0.416E-05
 -21.449  0.546E-04  0.457E-04  0.442E-05  0.442E-05
 -21.448  0.577E-04  0.483E-04  0.470E-05  0.470E-05
 -21.447  0.609E-04  0.509E-04  0.499E-05  0.499E-05
 -21.446  0.644E-04  0.538E-04  0.530E-05  0.530E-05
 -21.445  0.679E-04  0.567E-04  0.562E-05  0.562E-05
 -21.444  0.717E-04  0.598E-04  0.596E-05  0.596E-05
 -21.443  0.757E-04  0.630E-04  0.632E-05  0.632E-05
 -21.442  0.798E-04  0.664E-04  0.670E-05  0.670E-05
 -21.441  0.841E-04  0.699E-04  0.710E-05  0.710E-05
 -21.440  0.887E-04  0.736E-04  0.752E-05  0.752E-05
 -21.439  0.934E-04  0.775E-04  0.796E-05  0.796E-05
 -21.438  0.983E-04  0.815E-04  0.843E-05  0.843E-05
 -21.437  0.104E-03  0.857E-04  0.892E-05  0.892E-05
 -21.436  0.109E-03  0.901E-04  0.943E-05  0.943E-05
 -21.435  0.115E-03  0.946E-04  0.997E-05  0.997E-05
 -21.434  0.120E-03  0.994E-04  0.105E-04  0.105E-04
 -21.433  0.127E-03  0.104E-03  0.111E-04  0.111E-04
 -21.432  0.133E-03  0.110E-03  0.118E-04  0.118E-04
 -21.431  0.140E-03  0.115E-03  0.124E-04  0.124E-04
 -21.430  0.147E-03  0.121E-03  0.131E-04  0.131E-04
 -21.429  0.154E-03  0.126E-03  0.138E-04  0.138E-04
 -21.428  0.162E-03  0.132E-03  0.146E-04  0.146E-04
 -21.427  0.169E-03  0.139E-03  0.154E-04  0.154E-04
 -21.426  0.178E-03  0.145E-03  0.162E-04  0.162E-04
 -21.425  0.186E-03  0.152E-03  0.171E-04  0.171E-04
 -21.424  0.195E-03  0.159E-03  0.180E-04  0.180E-04
 -21.423  0.204E-03  0.166E-03  0.189E-04  0.189E-04
 -21.422  0.214E-03  0.174E-03  0.199E-04  0.199E-04
 -21.421  0.224E-03  0.182E-03  0.210E-04  0.210E-04
 -21.420  0.234E-03  0.190E-03  0.221E-04  0.221E-04
 -21.419  0.245E-03  0.198E-03  0.232E-04  0.232E-04
 -21.418  0.256E-03  0.207E-03  0.244E-04  0.244E-04
 -21.417  0.267E-03  0.216E-03  0.256E-04  0.256E-04
 -21.416  0.279E-03  0.225E-03  0.269E-04  0.269E-04
 -21.415  0.292E-03  0.235E-03  0.283E-04  0.283E-04
 -21.414  0.304E-03  0.245E-03  0.297E-04  0.297E-04
 -21.413  0.318E-03  0.255E-03  0.311E-04  0.311E-04
 -21.412  0.331E-03  0.266E-03  0.326E-04  0.326E-04
 -21.411  0.345E-03  0.277E-03  0.342E-04  0.342E-04
 -21.410  0.360E-03  0.288E-03  0.359E-04  0.359E-04
 -21.409  0.375E-03  0.300E-03  0.376E-04  0.376E-04
 -21.408  0.391E-03  0.312E-03  0.394E-04  0.394E-04
 -21.407  0.407E-03  0.324E-03  0.413E-04  0.413E-04
 -21.406  0.423E-03  0.337E-03  0.432E-04  0.432E-04
 -21.405  0.441E-03  0.350E-03  0.452E-04  0.452E-04
 -21.404  0.458E-03  0.364E-03  0.473E-04  0.473E-04
 -21.403  0.477E-03  0.378E-03  0.495E-04  0.495E-04
 -21.402  0.495E-03  0.392E-03  0.517E-04  0.517E-04
 -21.401  0.515E-03  0.407E-03  0.541E-04  0.541E-04
 -21.400  0.535E-03  0.422E-03  0.565E-04  0.565E-04
 -21.399  0.555E-03  0.437E-03  0.590E-04  0.590E-04
 -21.398  0.576E-03  0.453E-03  0.616E-04  0.616E-04
 -21.397  0.598E-03  0.469E-03  0.643E-04  0.643E-04
 -21.396  0.620E-03  0.486E-03  0.671E-04  0.671E-04
 -21.395  0.643E-03  0.503E-03  0.700E-04  0.700E-04
 -21.394  0.667E-03  0.521E-03  0.730E-04  0.730E-04
 -21.393  0.691E-03  0.539E-03  0.761E-04  0.761E-04
 -21.392  0.716E-03  0.557E-03  0.793E-04  0.793E-04
 -21.391  0.741E-03  0.576E-03  0.826E-04  0.826E-04
 -21.390  0.767E-03  0.595E-03  0.861E-04  0.861E-04
 -21.389  0.794E-03  0.615E-03  0.896E-04  0.896E-04
 -21.388  0.821E-03  0.635E-03  0.933E-04  0.933E-04
 -21.387  0.849E-03  0.655E-03  0.971E-04  0.971E-04
 -21.386  0.878E-03  0.676E-03  0.101E-03  0.101E-03
 -21.385  0.907E-03  0.697E-03  0.105E-03  0.105E-03
 -21.384  0.937E-03  0.719E-03  0.109E-03  0.109E-03
 -21.383  0.968E-03  0.741E-03  0.113E-03  0.113E-03
 -21.382  0.100E-02  0.764E-03  0.118E-03  0.118E-03
 -21.381  0.103E-02  0.787E-03  0.122E-03  0.122E-03
 -21.380  0.106E-02  0.810E-03  0.127E-03  0.127E-03
 -21.379  0.110E-02  0.834E-03  0.132E-03  0.132E-03
 -21.378  0.113E-02  0.858E-03  0.137E-03  0.137E-03
 -21.377  0.117E-02  0.883E-03  0.142E-03  0.142E-03
 -21.376  0.120E-02  0.908E-03  0.147E-03  0.147E-03
 -21.375  0.124E-02  0.933E-03  0.153E-03  0.153E-03
 -21.374  0.128E-02  0.959E-03  0.158E-03  0.158E-03
 -21.373  0.131E-02  0.985E-03  0.164E-03  0.164E-03
 -21.372  0.135E-02  0.101E-02  0.170E-03  0.170E-03
 -21.371  0.139E-02  0.104E-02  0.176E-03  0.176E-03
 -21.370  0.143E-02  0.107E-02  0.182E-03  0.182E-03
 -21.369  0.147E-02  0.109E-02  0.189E-03  0.189E-03
 -21.368  0.151E-02  0.112E-02  0.195E-03  0.195E-03
 -21.367  0.155E-02  0.115E-02  0.202E-03  0.202E-03
 -21.366  0.160E-02  0.118E-02  0.209E-03  0.209E-03
 -21.365  0.164E-02  0.121E-02  0.216E-03  0.216E-03
 -21.364  0.168E-02  0.124E-02  0.223E-03  0.223E-03
 -21.363  0.173E-02  0.127E-02  0.231E-03  0.231E-03
 -21.362  0.177E-02  0.130E-02  0.238E-03  0.238E-03
 -21.361  0.182E-02  0.133E-02  0.246E-03  0.246E-03
 -21.360  0.186E-02  0.136E-02  0.254E-03  0.254E-03
 -21.359  0.191E-02  0.139E-02  0.262E-03  0.262E-03
 -21.358  0.196E-02  0.142E-02  0.271E-03  0.271E-03
 -21.357  0.201E-02  0.145E-02  0.279E-03  0.279E-03
 -21.356  0.206E-02  0.148E-02  0.288E-03  0.288E-03
 -21.355  0.211E-02  0.151E-02  0.297E-03  0.297E-03
 -21.354  0.216E-02  0.154E-02  0.306E-03  0.306E-03
 -21.353  0.221E-02  0.158E-02  0.315E-03  0.315E-03
 -21.352  0.226E-02  0.161E-02  0.325E-03  0.325E-03
 -21.351  0.231E-02  0.164E-02  0.334E-03  0.334E-03
 -21.350  0.236E-02  0.167E-02  0.344E-03  0.344E-03
 -21.349  0.241E-02  0.171E-02  0.355E-03  0.355E-03
 -21.348  0.247E-02  0.174E-02  0.365E-03  0.365E-03
 -21.347  0.252E-02  0.177E-02  0.375E-03  0.375E-03
 -21.346  0.258E-02  0.180E-02  0.386E-03  0.386E-03
 -21.345  0.263E-02  0.184E-02  0.397E-03  0.397E-03
 -21.344  0.268E-02  0.187E-02  0.408E-03  0.408E-03
 -21.343  0.274E-02  0.190E-02  0.420E-03  0.420E-03
 -21.342  0.280E-02  0.193E-02  0.431E-03  0.431E-03
 -21.341  0.285E-02  0.197E-02  0.443E-03  0.443E-03
 -21.340  0.291E-02  0.200E-02  0.455E-03  0.455E-03
 -21.339  0.297E-02  0.203E-02  0.467E-03  0.467E-03
 -21.338  0.302E-02  0.207E-02  0.480E-03  0.480E-03
 -21.337  0.308E-02  0.210E-02  0.492E-03  0.492E-03
 -21.336  0.314E-02  0.213E-02  0.505E-03  0.505E-03
 -21.335  0.320E-02  0.216E-02  0.518E-03  0.518E-03
 -21.334  0.326E-02  0.219E-02  0.531E-03  0.531E-03
 -21.333  0.332E-02  0.223E-02  0.545E-03  0.545E-03
 -21.332  0.338E-02  0.226E-02  0.559E-03  0.559E-03
 -21.331  0.344E-02  0.229E-02  0.572E-03  0.572E-03
 -21.330  0.350E-02  0.232E-02  0.587E-03  0.587E-03
 -21.329  0.356E-02  0.235E-02  0.601E-03  0.601E-03
 -21.328  0.362E-02  0.238E-02  0.615E-03  0.615E-03
 -21.327  0.368E-02  0.242E-02  0.630E-03  0.630E-03
 -21.326  0.374E-02  0.245E-02  0.645E-03  0.645E-03
 -21.325  0.380E-02  0.248E-02  0.660E-03  0.660E-03
 -21.324  0.386E-02  0.251E-02  0.676E-03  0.676E-03
 -21.323  0.392E-02  0.254E-02  0.691E-03  0.691E-03
 -21.322  0.398E-02  0.257E-02  0.707E-03  0.707E-03
 -21.321  0.404E-02  0.260E-02  0.723E-03  0.723E-03
 -21.320  0.410E-02  0.262E-02  0.739E-03  0.739E-03
 -21.319  0.416E-02  0.265E-02  0.755E-03  0.755E-03
 -21.318  0.423E-02  0.268E-02  0.772E-03  0.772E-03
 -21.317  0.429E-02  0.271E-02  0.789E-03  0.789E-03
 -21.316  0.435E-02  0.274E-02  0.806E-03  0.806E-03
 -21.315  0.441E-02  0.276E-02  0.823E-03  0.823E-03
 -21.314  0.447E-02  0.279E-02  0.840E-03  0.840E-03
 -21.313  0.453E-02  0.282E-02  0.858E-03  0.858E-03
 -21.312  0.459E-02  0.284E-02  0.875E-03  0.875E-03
 -21.311  0.465E-02  0.287E-02  0.893E-03  0.893E-03
 -21.310  0.472E-02  0.289E-02  0.911E-03  0.911E-03
 -21.309  0.478E-02  0.292E-02  0.929E-03  0.929E-03
 -21.308  0.484E-02  0.294E-02  0.948E-03  0.948E-03
 -21.307  0.490E-02  0.297E-02  0.966E-03  0.966E-03
 -21.306  0.496E-02  0.299E-02  0.985E-03  0.985E-03
 -21.305  0.502E-02  0.301E-02  0.100E-02  0.100E-02
 -21.304  0.508E-02  0.303E-02  0.102E-02  0.102E-02
 -21.303  0.514E-02  0.306E-02  0.104E-02  0.104E-02
 -21.302  0.520E-02  0.308E-02  0.106E-02  0.106E-02
 -21.301  0.526E-02  0.310E-02  0.108E-02  0.108E-02
 -21.300  0.532E-02  0.312E-02  0.110E-02  0.110E-02
 -21.299  0.538E-02  0.314E-02  0.112E-02  0.112E-02
 -21.298  0.544E-02  0.316E-02  0.114E-02  0.114E-02
 -21.297  0.550E-02  0.318E-02  0.116E-02  0.116E-02
 -21.296  0.556E-02  0.319E-02  0.118E-02  0.118E-02
 -21.295  0.562E-02  0.321E-02  0.120E-02  0.120E-02
 -21.294  0.567E-02  0.323E-02  0.122E-02  0.122E-02
 -21.293  0.573E-02  0.324E-02  0.124E-02  0.124E-02
 -21.292  0.579E-02  0.326E-02  0.126E-02  0.126E-02
 -21.291  0.585E-02  0.328E-02  0.129E-02  0.129E-02
 -21.290  0.591E-02  0.329E-02  0.131E-02  0.131E-02
 -21.289  0.596E-02  0.331E-02  0.133E-02  0.133E-02
 -21.288  0.602E-02  0.332E-02  0.135E-02  0.135E-02
 -21.287  0.608E-02  0.333E-02  0.137E-02  0.137E-02
 -21.286  0.613E-02  0.335E-02  0.139E-02  0.139E-02
 -21.285  0.619E-02  0.336E-02  0.141E-02  0.141E-02
 -21.284  0.624E-02  0.337E-02  0.144E-02  0.144E-02
 -21.283  0.630E-02  0.338E-02  0.146E-02  0.146E-02
 -21.282  0.636E-02  0.339E-02  0.148E-02  0.148E-02
 -21.281  0.641E-02  0.341E-02  0.150E-02  0.150E-02
 -21.280  0.646E-02  0.342E-02  0.152E-02  0.152E-02
 -21.279  0.652E-02  0.342E-02  0.155E-02  0.155E-02
 -21.278  0.657E-02  0.343E-02  0.157E-02  0.157E-02
 -21.277  0.663E-02  0.344E-02  0.159E-02  0.159E-02
 -21.276  0.668E-02  0.345E-02  0.161E-02  0.161E-02
 -21.275  0.673E-02  0.346E-02  0.164E-02  0.164E-02
 -21.274  0.679E-02  0.347E-02  0.166E-02  0.166E-02
 -21.273  0.684E-02  0.347E-02  0.168E-02  0.168E-02
 -21.272  0.689E-02  0.348E-02  0.171E-02  0.171E-02
 -21.271  0.694E-02  0.349E-02  0.173E-02  0.173E-02
 -21.270  0.700E-02  0.349E-02  0.175E-02  0.175E-02
 -21.269  0.705E-02  0.350E-02  0.177E-02  0.177E-02
 -21.268  0.710E-02  0.350E-02  0.180E-02  0.180E-02
 -21.267  0.715E-02  0.351E-02  0.182E-02  0.182E-02
 -21.266  0.720E-02  0.351E-02  0.184E-02  0.184E-02
 -21.265  0.725E-02  0.351E-02  0.187E-02  0.187E-02
 -21.264  0.730E-02  0.352E-02  0.189E-02  0.189E-02
 -21.263  0.735E-02  0.352E-02  0.191E-02  0.191E-02
 -21.262  0.740E-02  0.352E-02  0.194E-02  0.194E-02
 -21.261  0.745E-02  0.353E-02  0.196E-02  0.196E-02
 -21.260  0.750E-02  0.353E-02  0.198E-02  0.198E-02
 -21.259  0.754E-02  0.353E-02  0.201E-02  0.201E-02
 -21.258  0.759E-02  0.353E-02  0.203E-02  0.203E-02
 -21.257  0.764E-02  0.353E-02  0.205E-02  0.205E-02
 -21.256  0.769E-02  0.353E-02  0.208E-02  0.208E-02
 -21.255  0.774E-02  0.353E-02  0.210E-02  0.210E-02
 -21.254  0.778E-02  0.353E-02  0.213E-02  0.213E-02
 -21.253  0.783E-02  0.353E-02  0.215E-02  0.215E-02
 -21.252  0.788E-02  0.353E-02  0.217E-02  0.217E-02
 -21.251  0.792E-02  0.353E-02  0.220E-02  0.220E-02
 -21.250  0.797E-02  0.353E-02  0.222E-02  0.222E-02
 -21.249  0.802E-02  0.353E-02  0.224E-02  0.224E-02
 -21.248  0.806E-02  0.353E-02  0.227E-02  0.227E-02
 -21.247  0.811E-02  0.353E-02  0.229E-02  0.229E-02
 -21.246  0.815E-02  0.353E-02  0.231E-02  0.231E-02
 -21.245  0.820E-02  0.352E-02  0.234E-02  0.234E-02
 -21.244  0.824E-02  0.352E-02  0.236E-02  0.236E-02
 -21.243  0.829E-02  0.352E-02  0.238E-02  0.238E-02
 -21.242  0.833E-02  0.352E-02  0.241E-02  0.241E-02
 -21.241  0.838E-02  0.352E-02  0.243E-02  0.243E-02
 -21.240  0.842E-02  0.351E-02  0.245E-02  0.245E-02
 -21.239  0.847E-02  0.351E-02  0.248E-02  0.248E-02
 -21.238  0.851E-02  0.351E-02  0.250E-02  0.250E-02
 -21.237  0.855E-02  0.350E-02  0.253E-02  0.253E-02
 -21.236  0.860E-02  0.350E-02  0.255E-02  0.255E-02
 -21.235  0.864E-02  0.350E-02  0.257E-02  0.257E-02
 -21.234  0.868E-02  0.349E-02  0.259E-02  0.259E-02
 -21.233  0.873E-02  0.349E-02  0.262E-02  0.262E-02
 -21.232  0.877E-02  0.349E-02  0.264E-02  0.264E-02
 -21.231  0.881E-02  0.348E-02  0.266E-02  0.266E-02
 -21.230  0.885E-02  0.348E-02  0.269E-02  0.269E-02
 -21.229  0.890E-02  0.348E-02  0.271E-02  0.271E-02
 -21.228  0.894E-02  0.347E-02  0.273E-02  0.273E-02
 -21.227  0.898E-02  0.347E-02  0.276E-02  0.276E-02
 -21.226  0.902E-02  0.346E-02  0.278E-02  0.278E-02
 -21.225  0.906E-02  0.346E-02  0.280E-02  0.280E-02
 -21.224  0.911E-02  0.346E-02  0.283E-02  0.283E-02
 -21.223  0.915E-02  0.345E-02  0.285E-02  0.285E-02
 -21.222  0.919E-02  0.345E-02  0.287E-02  0.287E-02
 -21.221  0.923E-02  0.344E-02  0.289E-02  0.289E-02
 -21.220  0.927E-02  0.344E-02  0.292E-02  0.292E-02
 -21.219  0.931E-02  0.343E-02  0.294E-02  0.294E-02
 -21.218  0.935E-02  0.343E-02  0.296E-02  0.296E-02
 -21.217  0.939E-02  0.343E-02  0.298E-02  0.298E-02
 -21.216  0.943E-02  0.342E-02  0.301E-02  0.301E-02
 -21.215  0.947E-02  0.342E-02  0.303E-02  0.303E-02
 -21.214  0.951E-02  0.341E-02  0.305E-02  0.305E-02
 -21.213  0.955E-02  0.341E-02  0.307E-02  0.307E-02
 -21.212  0.959E-02  0.340E-02  0.309E-02  0.309E-02
 -21.211  0.963E-02  0.340E-02  0.312E-02  0.312E-02
 -21.210  0.967E-02  0.339E-02  0.314E-02  0.314E-02
 -21.209  0.971E-02  0.339E-02  0.316E-02  0.316E-02
 -21.208  0.975E-02  0.339E-02  0.318E-02  0.318E-02
 -21.207  0.979E-02  0.338E-02  0.320E-02  0.320E-02
 -21.206  0.983E-02  0.338E-02  0.323E-02  0.323E-02
 -21.205  0.987E-02  0.337E-02  0.325E-02  0.325E-02
 -21.204  0.991E-02  0.337E-02  0.327E-02  0.327E-02
 -21.203  0.995E-02  0.336E-02  0.329E-02  0.329E-02
 -21.202  0.999E-02  0.336E-02  0.331E-02  0.331E-02
 -21.201  0.100E-01  0.336E-02  0.333E-02  0.333E-02
 -21.200  0.101E-01  0.335E-02  0.336E-02  0.336E-02
 -21.199  0.101E-01  0.335E-02  0.338E-02  0.338E-02
 -21.198  0.101E-01  0.334E-02  0.340E-02  0.340E-02
 -21.197  0.102E-01  0.334E-02  0.342E-02  0.342E-02
 -21.196  0.102E-01  0.334E-02  0.344E-02  0.344E-02
 -21.195  0.103E-01  0.333E-02  0.346E-02  0.346E-02
 -21.194  0.103E-01  0.333E-02  0.348E-02  0.348E-02
 -21.193  0.103E-01  0.332E-02  0.350E-02  0.350E-02
 -21.192  0.104E-01  0.332E-02  0.352E-02  0.352E-02
 -21.191  0.104E-01  0.332E-02  0.354E-02  0.354E-02
 -21.190  0.104E-01  0.331E-02  0.356E-02  0.356E-02
 -21.189  0.105E-01  0.331E-02  0.359E-02  0.359E-02
 -21.188  0.105E-01  0.331E-02  0.361E-02  0.361E-02
 -21.187  0.106E-01  0.330E-02  0.363E-02  0.363E-02
 -21.186  0.106E-01  0.330E-02  0.365E-02  0.365E-02
 -21.185  0.106E-01  0.330E-02  0.367E-02  0.367E-02
 -21.184  0.107E-01  0.329E-02  0.369E-02  0.369E-02
 -21.183  0.107E-01  0.329E-02  0.371E-02  0.371E-02
 -21.182  0.107E-01  0.329E-02  0.373E-02  0.373E-02
 -21.181  0.108E-01  0.328E-02  0.375E-02  0.375E-02
 -21.180  0.108E-01  0.328E-02  0.377E-02  0.377E-02
 -21.179  0.109E-01  0.328E-02  0.379E-02  0.379E-02
 -21.178  0.109E-01  0.327E-02  0.381E-02  0.381E-02
 -21.177  0.109E-01  0.327E-02  0.383E-02  0.383E-02
 -21.176  0.110E-01  0.327E-02  0.385E-02  0.385E-02
 -21.175  0.110E-01  0.326E-02  0.387E-02  0.387E-02
 -21.174  0.110E-01  0.326E-02  0.389E-02  0.389E-02
 -21.173  0.111E-01  0.326E-02  0.391E-02  0.391E-02
 -21.172  0.111E-01  0.325E-02  0.393E-02  0.393E-02
 -21.171  0.111E-01  0.325E-02  0.394E-02  0.394E-02
 -21.170  0.112E-01  0.325E-02  0.396E-02  0.396E-02
 -21.169  0.112E-01  0.325E-02  0.398E-02  0.398E-02
 -21.168  0.112E-01  0.324E-02  0.400E-02  0.400E-02
 -21.167  0.113E-01  0.324E-02  0.402E-02  0.402E-02
 -21.166  0.113E-01  0.324E-02  0.404E-02  0.404E-02
 -21.165  0.114E-01  0.323E-02  0.406E-02  0.406E-02
 -21.164  0.114E-01  0.323E-02  0.408E-02  0.408E-02
 -21.163  0.114E-01  0.323E-02  0.410E-02  0.410E-02
 -21.162  0.115E-01  0.323E-02  0.412E-02  0.412E-02
 -21.161  0.115E-01  0.322E-02  0.414E-02  0.414E-02
 -21.160  0.115E-01  0.322E-02  0.416E-02  0.416E-02
 -21.159  0.116E-01  0.322E-02  0.418E-02  0.418E-02
 -21.158  0.116E-01  0.322E-02  0.419E-02  0.419E-02
 -21.157  0.116E-01  0.321E-02  0.421E-02  0.421E-02
 -21.156  0.117E-01  0.321E-02  0.423E-02  0.423E-02
 -21.155  0.117E-01  0.321E-02  0.425E-02  0.425E-02
 -21.154  0.117E-01  0.321E-02  0.427E-02  0.427E-02
 -21.153  0.118E-01  0.320E-02  0.429E-02  0.429E-02
 -21.152  0.118E-01  0.320E-02  0.431E-02  0.431E-02
 -21.151  0.118E-01  0.320E-02  0.433E-02  0.433E-02
 -21.150  0.119E-01  0.320E-02  0.434E-02  0.434E-02
 -21.149  0.119E-01  0.319E-02  0.436E-02  0.436E-02
 -21.148  0.120E-01  0.319E-02  0.438E-02  0.438E-02
 -21.147  0.120E-01  0.319E-02  0.440E-02  0.440E-02
 -21.146  0.120E-01  0.319E-02  0.442E-02  0.442E-02
 -21.145  0.121E-01  0.318E-02  0.444E-02  0.444E-02
 -21.144  0.121E-01  0.318E-02  0.446E-02  0.446E-02
 -21.143  0.121E-01  0.318E-02  0.447E-02  0.447E-02
 -21.142  0.122E-01  0.318E-02  0.449E-02  0.449E-02
 -21.141  0.122E-01  0.318E-02  0.451E-02  0.451E-02
 -21.140  0.122E-01  0.317E-02  0.453E-02  0.453E-02
 -21.139  0.123E-01  0.317E-02  0.455E-02  0.455E-02
 -21.138  0.123E-01  0.317E-02  0.457E-02  0.457E-02
 -21.137  0.123E-01  0.317E-02  0.459E-02  0.459E-02
 -21.136  0.124E-01  0.316E-02  0.460E-02  0.460E-02
 -21.135  0.124E-01  0.316E-02  0.462E-02  0.462E-02
 -21.134  0.124E-01  0.316E-02  0.464E-02  0.464E-02
 -21.133  0.125E-01  0.316E-02  0.466E-02  0.466E-02
 -21.132  0.125E-01  0.315E-02  0.468E-02  0.468E-02
 -21.131  0.125E-01  0.315E-02  0.470E-02  0.470E-02
 -21.130  0.126E-01  0.315E-02  0.472E-02  0.472E-02
 -21.129  0.126E-01  0.315E-02  0.473E-02  0.473E-02
 -21.128  0.127E-01  0.314E-02  0.475E-02  0.475E-02
 -21.127  0.127E-01  0.314E-02  0.477E-02  0.477E-02
 -21.126  0.127E-01  0.314E-02  0.479E-02  0.479E-02
 -21.125  0.128E-01  0.314E-02  0.481E-02  0.481E-02
 -21.124  0.128E-01  0.314E-02  0.483E-02  0.483E-02
 -21.123  0.128E-01  0.313E-02  0.485E-02  0.485E-02
 -21.122  0.129E-01  0.313E-02  0.486E-02  0.486E-02
 -21.121  0.129E-01  0.313E-02  0.488E-02  0.488E-02
 -21.120  0.129E-01  0.313E-02  0.490E-02  0.490E-02
 -21.119  0.130E-01  0.312E-02  0.492E-02  0.492E-02
 -21.118  0.130E-01  0.312E-02  0.494E-02  0.494E-02
 -21.117  0.130E-01  0.312E-02  0.496E-02  0.496E-02
 -21.116  0.131E-01  0.311E-02  0.498E-02  0.498E-02
 -21.115  0.131E-01  0.311E-02  0.499E-02  0.499E-02
 -21.114  0.131E-01  0.311E-02  0.501E-02  0.501E-02
 -21.113  0.132E-01  0.311E-02  0.503E-02  0.503E-02
 -21.112  0.132E-01  0.310E-02  0.505E-02  0.505E-02
 -21.111  0.132E-01  0.310E-02  0.507E-02  0.507E-02
 -21.110  0.133E-01  0.310E-02  0.509E-02  0.509E-02
 -21.109  0.133E-01  0.310E-02  0.511E-02  0.511E-02
 -21.108  0.133E-01  0.309E-02  0.513E-02  0.513E-02
 -21.107  0.134E-01  0.309E-02  0.515E-02  0.515E-02
 -21.106  0.134E-01  0.309E-02  0.516E-02  0.516E-02
 -21.105  0.135E-01  0.309E-02  0.518E-02  0.518E-02
 -21.104  0.135E-01  0.308E-02  0.520E-02  0.520E-02
 -21.103  0.135E-01  0.308E-02  0.522E-02  0.522E-02
 -21.102  0.136E-01  0.308E-02  0.524E-02  0.524E-02
 -21.101  0.136E-01  0.307E-02  0.526E-02  0.526E-02
 -21.100  0.136E-01  0.307E-02  0.528E-02  0.528E-02
 -21.099  0.137E-01  0.307E-02  0.530E-02  0.530E-02
 -21.098  0.137E-01  0.306E-02  0.532E-02  0.532E-02
 -21.097  0.137E-01  0.306E-02  0.534E-02  0.534E-02
 -21.096  0.138E-01  0.306E-02  0.535E-02  0.535E-02
 -21.095  0.138E-01  0.306E-02  0.537E-02  0.537E-02
 -21.094  0.138E-01  0.305E-02  0.539E-02  0.539E-02
 -21.093  0.139E-01  0.305E-02  0.541E-02  0.541E-02
 -21.092  0.139E-01  0.305E-02  0.543E-02  0.543E-02
 -21.091  0.139E-01  0.304E-02  0.545E-02  0.545E-02
 -21.090  0.140E-01  0.304E-02  0.547E-02  0.547E-02
 -21.089  0.140E-01  0.304E-02  0.549E-02  0.549E-02
 -21.088  0.140E-01  0.303E-02  0.551E-02  0.551E-02
 -21.087  0.141E-01  0.303E-02  0.553E-02  0.553E-02
 -21.086  0.141E-01  0.303E-02  0.555E-02  0.555E-02
 -21.085  0.142E-01  0.302E-02  0.557E-02  0.557E-02
 -21.084  0.142E-01  0.302E-02  0.558E-02  0.558E-02
 -21.083  0.142E-01  0.302E-02  0.560E-02  0.560E-02
 -21.082  0.143E-01  0.301E-02  0.562E-02  0.562E-02
 -21.081  0.143E-01  0.301E-02  0.564E-02  0.564E-02
 -21.080  0.143E-01  0.301E-02  0.566E-02  0.566E-02
 -21.079  0.144E-01  0.300E-02  0.568E-02  0.568E-02
 -21.078  0.144E-01  0.300E-02  0.570E-02  0.570E-02
 -21.077  0.144E-01  0.300E-02  0.572E-02  0.572E-02
 -21.076  0.145E-01  0.299E-02  0.574E-02  0.574E-02
 -21.075  0.145E-01  0.299E-02  0.576E-02  0.576E-02
 -21.074  0.145E-01  0.299E-02  0.578E-02  0.578E-02
 -21.073  0.146E-01  0.298E-02  0.580E-02  0.580E-02
 -21.072  0.146E-01  0.298E-02  0.582E-02  0.582E-02
 -21.071  0.146E-01  0.298E-02  0.584E-02  0.584E-02
 -21.070  0.147E-01  0.297E-02  0.585E-02  0.585E-02
 -21.069  0.147E-01  0.297E-02  0.587E-02  0.587E-02
 -21.068  0.148E-01  0.297E-02  0.589E-02  0.589E-02
 -21.067  0.148E-01  0.296E-02  0.591E-02  0.591E-02
 -21.066  0.148E-01  0.296E-02  0.593E-02  0.593E-02
 -21.065  0.149E-01  0.296E-02  0.595E-02  0.595E-02
 -21.064  0.149E-01  0.295E-02  0.597E-02  0.597E-02
 -21.063  0.149E-01  0.295E-02  0.599E-02  0.599E-02
 -21.062  0.150E-01  0.295E-02  0.601E-02  0.601E-02
 -21.061  0.150E-01  0.294E-02  0.603E-02  0.603E-02
 -21.060  0.150E-01  0.294E-02  0.605E-02  0.605E-02
 -21.059  0.151E-01  0.294E-02  0.607E-02  0.607E-02
 -21.058  0.151E-01  0.293E-02  0.609E-02  0.609E-02
 -21.057  0.151E-01  0.293E-02  0.611E-02  0.611E-02
 -21.056  0.152E-01  0.293E-02  0.613E-02  0.613E-02
 -21.055  0.152E-01  0.292E-02  0.614E-02  0.614E-02
 -21.054  0.152E-01  0.292E-02  0.616E-02  0.616E-02
 -21.053  0.153E-01  0.292E-02  0.618E-02  0.618E-02
 -21.052  0.153E-01  0.291E-02  0.620E-02  0.620E-02
 -21.051  0.154E-01  0.291E-02  0.622E-02  0.622E-02
 -21.050  0.154E-01  0.291E-02  0.624E-02  0.624E-02
 -21.049  0.154E-01  0.290E-02  0.626E-02  0.626E-02
 -21.048  0.155E-01  0.290E-02  0.628E-02  0.628E-02
 -21.047  0.155E-01  0.290E-02  0.630E-02  0.630E-02
 -21.046  0.155E-01  0.289E-02  0.632E-02  0.632E-02
 -21.045  0.156E-01  0.289E-02  0.634E-02  0.634E-02
 -21.044  0.156E-01  0.288E-02  0.636E-02  0.636E-02
 -21.043  0.156E-01  0.288E-02  0.637E-02  0.637E-02
 -21.042  0.157E-01  0.288E-02  0.639E-02  0.639E-02
 -21.041  0.157E-01  0.287E-02  0.641E-02  0.641E-02
 -21.040  0.157E-01  0.287E-02  0.643E-02  0.643E-02
 -21.039  0.158E-01  0.287E-02  0.645E-02  0.645E-02
 -21.038  0.158E-01  0.286E-02  0.647E-02  0.647E-02
 -21.037  0.158E-01  0.286E-02  0.649E-02  0.649E-02
 -21.036  0.159E-01  0.286E-02  0.651E-02  0.651E-02
 -21.035  0.159E-01  0.285E-02  0.653E-02  0.653E-02
 -21.034  0.159E-01  0.285E-02  0.655E-02  0.655E-02
 -21.033  0.160E-01  0.285E-02  0.656E-02  0.656E-02
 -21.032  0.160E-01  0.284E-02  0.658E-02  0.658E-02
 -21.031  0.160E-01  0.284E-02  0.660E-02  0.660E-02
 -21.030  0.161E-01  0.284E-02  0.662E-02  0.662E-02
 -21.029  0.161E-01  0.283E-02  0.664E-02  0.664E-02
 -21.028  0.161E-01  0.283E-02  0.666E-02  0.666E-02
 -21.027  0.162E-01  0.283E-02  0.668E-02  0.668E-02
 -21.026  0.162E-01  0.282E-02  0.670E-02  0.670E-02
 -21.025  0.163E-01  0.282E-02  0.672E-02  0.672E-02
 -21.024  0.163E-01  0.282E-02  0.673E-02  0.673E-02
 -21.023  0.163E-01  0.281E-02  0.675E-02  0.675E-02
 -21.022  0.164E-01  0.281E-02  0.677E-02  0.677E-02
 -21.021  0.164E-01  0.281E-02  0.679E-02  0.679E-02
 -21.020  0.164E-01  0.280E-02  0.681E-02  0.681E-02
 -21.019  0.165E-01  0.280E-02  0.683E-02  0.683E-02
 -21.018  0.165E-01  0.280E-02  0.685E-02  0.685E-02
 -21.017  0.165E-01  0.279E-02  0.686E-02  0.686E-02
 -21.016  0.166E-01  0.279E-02  0.688E-02  0.688E-02
 -21.015  0.166E-01  0.279E-02  0.690E-02  0.690E-02
 -21.014  0.166E-01  0.278E-02  0.692E-02  0.692E-02
 -21.013  0.167E-01  0.278E-02  0.694E-02  0.694E-02
 -21.012  0.167E-01  0.278E-02  0.696E-02  0.696E-02
 -21.011  0.167E-01  0.277E-02  0.698E-02  0.698E-02
 -21.010  0.168E-01  0.277E-02  0.699E-02  0.699E-02
 -21.009  0.168E-01  0.277E-02  0.701E-02  0.701E-02
 -21.008  0.168E-01  0.276E-02  0.703E-02  0.703E-02
 -21.007  0.169E-01  0.276E-02  0.705E-02  0.705E-02
 -21.006  0.169E-01  0.276E-02  0.707E-02  0.707E-02
 -21.005  0.169E-01  0.276E-02  0.709E-02  0.709E-02
 -21.004  0.170E-01  0.275E-02  0.710E-02  0.710E-02
 -21.003  0.170E-01  0.275E-02  0.712E-02  0.712E-02
 -21.002  0.170E-01  0.275E-02  0.714E-02  0.714E-02
 -21.001  0.171E-01  0.274E-02  0.716E-02  0.716E-02
 -21.000  0.171E-01  0.274E-02  0.718E-02  0.718E-02
 -20.999  0.171E-01  0.274E-02  0.719E-02  0.719E-02
 -20.998  0.172E-01  0.273E-02  0.721E-02  0.721E-02
 -20.997  0.172E-01  0.273E-02  0.723E-02  0.723E-02
 -20.996  0.172E-01  0.273E-02  0.725E-02  0.725E-02
 -20.995  0.173E-01  0.272E-02  0.727E-02  0.727E-02
 -20.994  0.173E-01  0.272E-02  0.728E-02  0.728E-02
 -20.993  0.173E-01  0.272E-02  0.730E-02  0.730E-02
 -20.992  0.174E-01  0.272E-02  0.732E-02  0.732E-02
 -20.991  0.174E-01  0.271E-02  0.734E-02  0.734E-02
 -20.990  0.174E-01  0.271E-02  0.735E-02  0.735E-02
 -20.989  0.175E-01  0.271E-02  0.737E-02  0.737E-02
 -20.988  0.175E-01  0.270E-02  0.739E-02  0.739E-02
 -20.987  0.175E-01  0.270E-02  0.741E-02  0.741E-02
 -20.986  0.175E-01  0.270E-02  0.742E-02  0.742E-02
 -20.985  0.176E-01  0.269E-02  0.744E-02  0.744E-02
 -20.984  0.176E-01  0.269E-02  0.746E-02  0.746E-02
 -20.983  0.176E-01  0.269E-02  0.748E-02  0.748E-02
 -20.982  0.177E-01  0.269E-02  0.749E-02  0.749E-02
 -20.981  0.177E-01  0.268E-02  0.751E-02  0.751E-02
 -20.980  0.177E-01  0.268E-02  0.753E-02  0.753E-02
 -20.979  0.178E-01  0.268E-02  0.754E-02  0.754E-02