# E (eV)   ldos(E)   pdos(E)   
 -21.338  0.000E+00  0.000E+00
 -21.337  0.160E+00  0.160E+00
 -21.336  0.136E+00  0.136E+00
 -21.335  0.149E+00  0.149E+00
 -21.334  0.163E+00  0.163E+00
 -21.333  0.174E+00  0.174E+00
 -21.332  0.157E+00  0.157E+00
 -21.331  0.150E+00  0.150E+00
 -21.330  0.155E+00  0.155E+00
 -21.329  0.159E+00  0.159E+00
 -21.328  0.164E+00  0.164E+00
 -21.327  0.169E+00  0.169E+00
 -21.326  0.157E+00  0.157E+00
 -21.325  0.156E+00  0.156E+00
 -21.324  0.155E+00  0.155E+00
 -21.323  0.155E+00  0.155E+00
 -21.322  0.158E+00  0.158E+00
 -21.321  0.160E+00  0.160E+00
 -21.320  0.163E+00  0.163E+00
 -21.319  0.165E+00  0.165E+00
 -21.318  0.165E+00  0.165E+00
 -21.317  0.159E+00  0.159E+00
 -21.316  0.157E+00  0.157E+00
 -21.315  0.158E+00  0.158E+00
 -21.314  0.158E+00  0.158E+00
 -21.313  0.159E+00  0.159E+00
 -21.312  0.159E+00  0.159E+00
 -21.311  0.161E+00  0.161E+00
 -21.310  0.162E+00  0.162E+00
 -21.309  0.164E+00  0.164E+00
 -21.308  0.165E+00  0.165E+00
 -21.307  0.167E+00  0.167E+00
 -21.306  0.162E+00  0.162E+00
 -21.305  0.161E+00  0.161E+00
 -21.304  0.160E+00  0.160E+00
 -21.303  0.160E+00  0.160E+00
 -21.302  0.161E+00  0.161E+00
 -21.301  0.162E+00  0.162E+00
 -21.300  0.163E+00  0.163E+00
 -21.299  0.164E+00  0.164E+00
 -21.298  0.165E+00  0.165E+00
 -21.297  0.166E+00  0.166E+00
 -21.296  0.169E+00  0.169E+00
 -21.295  0.171E+00  0.171E+00
 -21.294  0.173E+00  0.173E+00
 -21.293  0.173E+00  0.173E+00
 -21.292  0.173E+00  0.173E+00
 -21.291  0.177E+00  0.177E+00
 -21.290  0.181E+00  0.181E+00
 -21.289  0.186E+00  0.186E+00
 -21.288  0.191E+00  0.191E+00
 -21.287  0.308E+00  0.308E+00
 -21.286  0.286E+00  0.286E+00
 -21.285  0.261E+00  0.261E+00
 -21.284  0.234E+00  0.234E+00
 -21.283  0.205E+00  0.205E+00
 -21.282  0.172E+00  0.172E+00
 -21.281  0.140E+00  0.140E+00
 -21.280  0.133E+00  0.133E+00
 -21.279  0.126E+00  0.126E+00
 -21.278  0.118E+00  0.118E+00
 -21.277  0.386E+00  0.386E+00
 -21.276  0.647E-01  0.647E-01
 -21.275  0.701E-01  0.701E-01
 -21.274  0.755E-01  0.755E-01
 -21.273  0.809E-01  0.809E-01
 -21.272  0.863E-01  0.863E-01
 -21.271  0.103E+00  0.103E+00
 -21.270  0.132E+00  0.132E+00
 -21.269  0.165E+00  0.165E+00
 -21.268  0.203E+00  0.203E+00
 -21.267  0.123E+00  0.123E+00
 -21.266  0.122E+00  0.122E+00
 -21.265  0.121E+00  0.121E+00
 -21.264  0.119E+00  0.119E+00
 -21.263  0.116E+00  0.116E+00
 -21.262  0.114E+00  0.114E+00
 -21.261  0.118E+00  0.118E+00
 -21.260  0.144E+00  0.144E+00
 -21.259  0.206E+00  0.206E+00
 -21.258  0.303E+00  0.303E+00
 -21.257  0.131E+00  0.131E+00
 -21.256  0.131E+00  0.131E+00
 -21.255  0.130E+00  0.130E+00
 -21.254  0.130E+00  0.130E+00
 -21.253  0.129E+00  0.129E+00
 -21.252  0.129E+00  0.129E+00
 -21.251  0.130E+00  0.130E+00
 -21.250  0.130E+00  0.130E+00
 -21.249  0.131E+00  0.131E+00
 -21.248  0.131E+00  0.131E+00
 -21.247  0.132E+00  0.132E+00
 -21.246  0.133E+00  0.133E+00
 -21.245  0.134E+00  0.134E+00
 -21.244  0.135E+00  0.135E+00
 -21.243  0.136E+00  0.136E+00
 -21.242  0.138E+00  0.138E+00
 -21.241  0.139E+00  0.139E+00
 -21.240  0.141E+00  0.141E+00
 -21.239  0.143E+00  0.143E+00
 -21.238  0.145E+00  0.145E+00
 -21.237  0.181E+00  0.181E+00
 -21.236  0.172E+00  0.172E+00
 -21.235  0.166E+00  0.166E+00
 -21.234  0.160E+00  0.160E+00
 -21.233  0.156E+00  0.156E+00
 -21.232  0.153E+00  0.153E+00
 -21.231  0.154E+00  0.154E+00
 -21.230  0.155E+00  0.155E+00
 -21.229  0.156E+00  0.156E+00
 -21.228  0.157E+00  0.157E+00
 -21.227  0.124E+00  0.124E+00
 -21.226  0.125E+00  0.125E+00
 -21.225  0.126E+00  0.126E+00
 -21.224  0.128E+00  0.128E+00
 -21.223  0.129E+00  0.129E+00
 -21.222  0.130E+00  0.130E+00
 -21.221  0.131E+00  0.131E+00
 -21.220  0.133E+00  0.133E+00
 -21.219  0.134E+00  0.134E+00
 -21.218  0.136E+00  0.136E+00
 -21.217  0.137E+00  0.137E+00
 -21.216  0.138E+00  0.138E+00
 -21.215  0.140E+00  0.140E+00
 -21.214  0.140E+00  0.140E+00
 -21.213  0.140E+00  0.140E+00
 -21.212  0.141E+00  0.141E+00
 -21.211  0.141E+00  0.141E+00
 -21.210  0.141E+00  0.141E+00
 -21.209  0.140E+00  0.140E+00
 -21.208  0.140E+00  0.140E+00
 -21.207  0.157E+00  0.157E+00
 -21.206  0.154E+00  0.154E+00
 -21.205  0.151E+00  0.151E+00
 -21.204  0.149E+00  0.149E+00
 -21.203  0.146E+00  0.146E+00
 -21.202  0.145E+00  0.145E+00
 -21.201  0.144E+00  0.144E+00
 -21.200  0.143E+00  0.143E+00
 -21.199  0.143E+00  0.143E+00
 -21.198  0.143E+00  0.143E+00
 -21.197  0.143E+00  0.143E+00
 -21.196  0.144E+00  0.144E+00
 -21.195  0.144E+00  0.144E+00
 -21.194  0.145E+00  0.145E+00
 -21.193  0.145E+00  0.145E+00
 -21.192  0.146E+00  0.146E+00
 -21.191  0.146E+00  0.146E+00
 -21.190  0.146E+00  0.146E+00
 -21.189  0.147E+00  0.147E+00
 -21.188  0.128E+00  0.128E+00
 -21.187  0.129E+00  0.129E+00
 -21.186  0.128E+00  0.128E+00
 -21.185  0.128E+00  0.128E+00
 -21.184  0.128E+00  0.128E+00
 -21.183  0.128E+00  0.128E+00
 -21.182  0.128E+00  0.128E+00
 -21.181  0.127E+00  0.127E+00
 -21.180  0.127E+00  0.127E+00
 -21.179  0.126E+00  0.126E+00
 -21.178  0.126E+00  0.126E+00
 -21.177  0.125E+00  0.125E+00
 -21.176  0.124E+00  0.124E+00
 -21.175  0.123E+00  0.123E+00
 -21.174  0.122E+00  0.122E+00
 -21.173  0.121E+00  0.121E+00
 -21.172  0.120E+00  0.120E+00
 -21.171  0.118E+00  0.118E+00
 -21.170  0.117E+00  0.117E+00
 -21.169  0.115E+00  0.115E+00
 -21.168  0.124E+00  0.124E+00
 -21.167  0.121E+00  0.121E+00
 -21.166  0.117E+00  0.117E+00
 -21.165  0.114E+00  0.114E+00
 -21.164  0.111E+00  0.111E+00
 -21.163  0.108E+00  0.108E+00
 -21.162  0.105E+00  0.105E+00
 -21.161  0.102E+00  0.102E+00
 -21.160  0.924E-01  0.924E-01
 -21.159  0.968E-01  0.968E-01
 -21.158  0.117E+00  0.117E+00
 -21.157  0.124E+00  0.124E+00
 -21.156  0.128E+00  0.128E+00
 -21.155  0.132E+00  0.132E+00
 -21.154  0.137E+00  0.137E+00
 -21.153  0.142E+00  0.142E+00
 -21.152  0.144E+00  0.144E+00
 -21.151  0.145E+00  0.145E+00
 -21.150  0.147E+00  0.147E+00
 -21.149  0.149E+00  0.149E+00
 -21.148  0.150E+00  0.150E+00
 -21.147  0.152E+00  0.152E+00
 -21.146  0.154E+00  0.154E+00
 -21.145  0.156E+00  0.156E+00
 -21.144  0.157E+00  0.157E+00
 -21.143  0.157E+00  0.157E+00
 -21.142  0.157E+00  0.157E+00
 -21.141  0.158E+00  0.158E+00
 -21.140  0.158E+00  0.158E+00
 -21.139  0.147E+00  0.147E+00
 -21.138  0.147E+00  0.147E+00
 -21.137  0.147E+00  0.147E+00
 -21.136  0.147E+00  0.147E+00
 -21.135  0.147E+00  0.147E+00
 -21.134  0.148E+00  0.148E+00
 -21.133  0.148E+00  0.148E+00
 -21.132  0.148E+00  0.148E+00
 -21.131  0.147E+00  0.147E+00
 -21.130  0.147E+00  0.147E+00
 -21.129  0.145E+00  0.145E+00
 -21.128  0.145E+00  0.145E+00
 -21.127  0.144E+00  0.144E+00
 -21.126  0.144E+00  0.144E+00
 -21.125  0.144E+00  0.144E+00
 -21.124  0.144E+00  0.144E+00
 -21.123  0.144E+00  0.144E+00
 -21.122  0.145E+00  0.145E+00
 -21.121  0.145E+00  0.145E+00
 -21.120  0.151E+00  0.151E+00
 -21.119  0.151E+00  0.151E+00
 -21.118  0.220E+00  0.220E+00
 -21.117  0.217E+00  0.217E+00
 -21.116  0.214E+00  0.214E+00
 -21.115  0.210E+00  0.210E+00
 -21.114  0.205E+00  0.205E+00
 -21.113  0.199E+00  0.199E+00
 -21.112  0.193E+00  0.193E+00
 -21.111  0.187E+00  0.187E+00
 -21.110  0.180E+00  0.180E+00
 -21.109  0.218E+00  0.218E+00
 -21.108  0.203E+00  0.203E+00
 -21.107  0.188E+00  0.188E+00
 -21.106  0.173E+00  0.173E+00
 -21.105  0.157E+00  0.157E+00
 -21.104  0.140E+00  0.140E+00
 -21.103  0.131E+00  0.131E+00
 -21.102  0.123E+00  0.123E+00
 -21.101  0.114E+00  0.114E+00
 -21.100  0.105E+00  0.105E+00
 -21.099  0.956E-01  0.956E-01
 -21.098  0.867E-01  0.867E-01
 -21.097  0.864E-01  0.864E-01
 -21.096  0.862E-01  0.862E-01
 -21.095  0.857E-01  0.857E-01
 -21.094  0.876E-01  0.876E-01
 -21.093  0.918E-01  0.918E-01
 -21.092  0.960E-01  0.960E-01
 -21.091  0.100E+00  0.100E+00
 -21.090  0.104E+00  0.104E+00
 -21.089  0.171E+00  0.171E+00
 -21.088  0.162E+00  0.162E+00
 -21.087  0.153E+00  0.153E+00
 -21.086  0.144E+00  0.144E+00
 -21.085  0.134E+00  0.134E+00
 -21.084  0.124E+00  0.124E+00
 -21.083  0.116E+00  0.116E+00
 -21.082  0.121E+00  0.121E+00
 -21.081  0.126E+00  0.126E+00
 -21.080  0.114E+00  0.114E+00
 -21.079  0.101E+00  0.101E+00
 -21.078  0.108E+00  0.108E+00
 -21.077  0.115E+00  0.115E+00
 -21.076  0.122E+00  0.122E+00
 -21.075  0.130E+00  0.130E+00
 -21.074  0.138E+00  0.138E+00
 -21.073  0.145E+00  0.145E+00
 -21.072  0.154E+00  0.154E+00
 -21.071  0.162E+00  0.162E+00
 -21.070  0.170E+00  0.170E+00
 -21.069  0.119E+00  0.119E+00
 -21.068  0.120E+00  0.120E+00
 -21.067  0.120E+00  0.120E+00
 -21.066  0.121E+00  0.121E+00
 -21.065  0.121E+00  0.121E+00
 -21.064  0.122E+00  0.122E+00
 -21.063  0.123E+00  0.123E+00
 -21.062  0.123E+00  0.123E+00
 -21.061  0.124E+00  0.124E+00
 -21.060  0.336E+00  0.336E+00
 -21.059  0.180E+00  0.180E+00
 -21.058  0.115E+00  0.115E+00
 -21.057  0.115E+00  0.115E+00
 -21.056  0.115E+00  0.115E+00
 -21.055  0.117E+00  0.117E+00
 -21.054  0.135E+00  0.135E+00
 -21.053  0.154E+00  0.154E+00
 -21.052  0.174E+00  0.174E+00
 -21.051  0.195E+00  0.195E+00
 -21.050  0.124E+00  0.124E+00
 -21.049  0.124E+00  0.124E+00
 -21.048  0.123E+00  0.123E+00
 -21.047  0.123E+00  0.123E+00
 -21.046  0.122E+00  0.122E+00
 -21.045  0.122E+00  0.122E+00
 -21.044  0.122E+00  0.122E+00
 -21.043  0.121E+00  0.121E+00
 -21.042  0.121E+00  0.121E+00
 -21.041  0.121E+00  0.121E+00
 -21.040  0.121E+00  0.121E+00
 -21.039  0.121E+00  0.121E+00
 -21.038  0.121E+00  0.121E+00
 -21.037  0.121E+00  0.121E+00
 -21.036  0.121E+00  0.121E+00
 -21.035  0.121E+00  0.121E+00
 -21.034  0.122E+00  0.122E+00
 -21.033  0.122E+00  0.122E+00
 -21.032  0.122E+00  0.122E+00
 -21.031  0.123E+00  0.123E+00
 -21.030  0.123E+00  0.123E+00
 -21.029  0.124E+00  0.124E+00
 -21.028  0.124E+00  0.124E+00
 -21.027  0.125E+00  0.125E+00
 -21.026  0.125E+00  0.125E+00
 -21.025  0.126E+00  0.126E+00
 -21.024  0.127E+00  0.127E+00
 -21.023  0.235E+00  0.235E+00
 -21.022  0.339E+00  0.339E+00
 -21.021  0.381E+00  0.381E+00
 -21.020  0.127E+00  0.127E+00
 -21.019  0.127E+00  0.127E+00
 -21.018  0.127E+00  0.127E+00
 -21.017  0.127E+00  0.127E+00
 -21.016  0.126E+00  0.126E+00
 -21.015  0.126E+00  0.126E+00
 -21.014  0.126E+00  0.126E+00
 -21.013  0.126E+00  0.126E+00
 -21.012  0.126E+00  0.126E+00
 -21.011  0.121E+00  0.121E+00
 -21.010  0.121E+00  0.121E+00
 -21.009  0.121E+00  0.121E+00
 -21.008  0.121E+00  0.121E+00
 -21.007  0.122E+00  0.122E+00
 -21.006  0.122E+00  0.122E+00
 -21.005  0.122E+00  0.122E+00
 -21.004  0.123E+00  0.123E+00
 -21.003  0.123E+00  0.123E+00
 -21.002  0.123E+00  0.123E+00
 -21.001  0.124E+00  0.124E+00
 -21.000  0.124E+00  0.124E+00
 -20.999  0.124E+00  0.124E+00
 -20.998  0.125E+00  0.125E+00
 -20.997  0.125E+00  0.125E+00
 -20.996  0.125E+00  0.125E+00
 -20.995  0.126E+00  0.126E+00
 -20.994  0.126E+00  0.126E+00
 -20.993  0.126E+00  0.126E+00
 -20.992  0.127E+00  0.127E+00
 -20.991  0.127E+00  0.127E+00
 -20.990  0.130E+00  0.130E+00
 -20.989  0.131E+00  0.131E+00
 -20.988  0.131E+00  0.131E+00
 -20.987  0.131E+00  0.131E+00
 -20.986  0.131E+00  0.131E+00
 -20.985  0.131E+00  0.131E+00
 -20.984  0.131E+00  0.131E+00
 -20.983  0.132E+00  0.132E+00
 -20.982  0.132E+00  0.132E+00
 -20.981  0.188E+00  0.188E+00
 -20.980  0.175E+00  0.175E+00
 -20.979  0.166E+00  0.166E+00
 -20.978  0.159E+00  0.159E+00
 -20.977  0.152E+00  0.152E+00
 -20.976  0.149E+00  0.149E+00
 -20.975  0.152E+00  0.152E+00
 -20.974  0.155E+00  0.155E+00
 -20.973  0.158E+00  0.158E+00
 -20.972  0.161E+00  0.161E+00
 -20.971  0.125E+00  0.125E+00
 -20.970  0.125E+00  0.125E+00
 -20.969  0.125E+00  0.125E+00
 -20.968  0.125E+00  0.125E+00
 -20.967  0.125E+00  0.125E+00
 -20.966  0.124E+00  0.124E+00
 -20.965  0.124E+00  0.124E+00
 -20.964  0.124E+00  0.124E+00
 -20.963  0.125E+00  0.125E+00
 -20.962  0.125E+00  0.125E+00
 -20.961  0.125E+00  0.125E+00
 -20.960  0.127E+00  0.127E+00
 -20.959  0.128E+00  0.128E+00
 -20.958  0.130E+00  0.130E+00
 -20.957  0.131E+00  0.131E+00
 -20.956  0.133E+00  0.133E+00
 -20.955  0.134E+00  0.134E+00
 -20.954  0.135E+00  0.135E+00
 -20.953  0.137E+00  0.137E+00
 -20.952  0.138E+00  0.138E+00
 -20.951  0.139E+00  0.139E+00
 -20.950  0.140E+00  0.140E+00
 -20.949  0.141E+00  0.141E+00
 -20.948  0.145E+00  0.145E+00
 -20.947  0.151E+00  0.151E+00
 -20.946  0.156E+00  0.156E+00
 -20.945  0.162E+00  0.162E+00
 -20.944  0.167E+00  0.167E+00
 -20.943  0.173E+00  0.173E+00
 -20.942  0.178E+00  0.178E+00
 -20.941  0.184E+00  0.184E+00
 -20.940  0.189E+00  0.189E+00
 -20.939  0.195E+00  0.195E+00
 -20.938  0.255E+00  0.255E+00
 -20.937  0.312E+00  0.312E+00
 -20.936  0.276E+00  0.276E+00
 -20.935  0.238E+00  0.238E+00
 -20.934  0.199E+00  0.199E+00
 -20.933  0.160E+00  0.160E+00
 -20.932  0.950E-01  0.950E-01
 -20.931  0.899E-01  0.899E-01
 -20.930  0.840E-01  0.840E-01
 -20.929  0.770E-01  0.770E-01
 -20.928  0.691E-01  0.691E-01
 -20.927  0.604E-01  0.604E-01
 -20.926  0.509E-01  0.509E-01
 -20.925  0.403E-01  0.403E-01
 -20.924  0.295E-01  0.295E-01
 -20.923  0.297E-01  0.297E-01
 -20.922  0.378E-01  0.378E-01
 -20.921  0.460E-01  0.460E-01
 -20.920  0.537E-01  0.537E-01
 -20.919  0.609E-01  0.609E-01
 -20.918  0.674E-01  0.674E-01
 -20.917  0.735E-01  0.735E-01
 -20.916  0.791E-01  0.791E-01
 -20.915  0.841E-01  0.841E-01
 -20.914  0.886E-01  0.886E-01
 -20.913  0.924E-01  0.924E-01
 -20.912  0.712E-01  0.712E-01
 -20.911  0.778E-01  0.778E-01
 -20.910  0.844E-01  0.844E-01
 -20.909  0.911E-01  0.911E-01
 -20.908  0.978E-01  0.978E-01
 -20.907  0.105E+00  0.105E+00
 -20.906  0.112E+00  0.112E+00
 -20.905  0.119E+00  0.119E+00
 -20.904  0.126E+00  0.126E+00
 -20.903  0.133E+00  0.133E+00
 -20.902  0.140E+00  0.140E+00
 -20.901  0.147E+00  0.147E+00
 -20.900  0.155E+00  0.155E+00
 -20.899  0.162E+00  0.162E+00
 -20.898  0.170E+00  0.170E+00
 -20.897  0.160E+00  0.160E+00
 -20.896  0.149E+00  0.149E+00
 -20.895  0.139E+00  0.139E+00
 -20.894  0.129E+00  0.129E+00
 -20.893  0.119E+00  0.119E+00
 -20.892  0.146E+00  0.146E+00
 -20.891  0.144E+00  0.144E+00
 -20.890  0.144E+00  0.144E+00
 -20.889  0.145E+00  0.145E+00
 -20.888  0.147E+00  0.147E+00
 -20.887  0.155E+00  0.155E+00
 -20.886  0.164E+00  0.164E+00
 -20.885  0.175E+00  0.175E+00
 -20.884  0.187E+00  0.187E+00
 -20.883  0.202E+00  0.202E+00
 -20.882  0.200E+00  0.200E+00
 -20.881  0.190E+00  0.190E+00
 -20.880  0.180E+00  0.180E+00
 -20.879  0.170E+00  0.170E+00
 -20.878  0.162E+00  0.162E+00
 -20.877  0.153E+00  0.153E+00
 -20.876  0.145E+00  0.145E+00
 -20.875  0.138E+00  0.138E+00
 -20.874  0.131E+00  0.131E+00
 -20.873  0.142E+00  0.142E+00
 -20.872  0.140E+00  0.140E+00
 -20.871  0.137E+00  0.137E+00
 -20.870  0.135E+00  0.135E+00
 -20.869  0.133E+00  0.133E+00
 -20.868  0.131E+00  0.131E+00
 -20.867  0.129E+00  0.129E+00
 -20.866  0.127E+00  0.127E+00
 -20.865  0.125E+00  0.125E+00
 -20.864  0.123E+00  0.123E+00
 -20.863  0.121E+00  0.121E+00
 -20.862  0.121E+00  0.121E+00
 -20.861  0.122E+00  0.122E+00
 -20.860  0.122E+00  0.122E+00
 -20.859  0.123E+00  0.123E+00
 -20.858  0.100E+00  0.100E+00
 -20.857  0.102E+00  0.102E+00
 -20.856  0.104E+00  0.104E+00
 -20.855  0.105E+00  0.105E+00
 -20.854  0.107E+00  0.107E+00
 -20.853  0.108E+00  0.108E+00
 -20.852  0.110E+00  0.110E+00
 -20.851  0.112E+00  0.112E+00
 -20.850  0.113E+00  0.113E+00
 -20.849  0.115E+00  0.115E+00
 -20.848  0.117E+00  0.117E+00
 -20.847  0.119E+00  0.119E+00
 -20.846  0.120E+00  0.120E+00
 -20.845  0.122E+00  0.122E+00
 -20.844  0.106E+00  0.106E+00
 -20.843  0.108E+00  0.108E+00
 -20.842  0.109E+00  0.109E+00
 -20.841  0.110E+00  0.110E+00
 -20.840  0.112E+00  0.112E+00
 -20.839  0.114E+00  0.114E+00
 -20.838  0.114E+00  0.114E+00
 -20.837  0.113E+00  0.113E+00
 -20.836  0.112E+00  0.112E+00
 -20.835  0.111E+00  0.111E+00
 -20.834  0.110E+00  0.110E+00
 -20.833  0.139E+00  0.139E+00
 -20.832  0.146E+00  0.146E+00
 -20.831  0.153E+00  0.153E+00
 -20.830  0.153E+00  0.153E+00
 -20.829  0.150E+00  0.150E+00
 -20.828  0.146E+00  0.146E+00
 -20.827  0.143E+00  0.143E+00
 -20.826  0.139E+00  0.139E+00
 -20.825  0.136E+00  0.136E+00
 -20.824  0.132E+00  0.132E+00
 -20.823  0.132E+00  0.132E+00
 -20.822  0.130E+00  0.130E+00
 -20.821  0.127E+00  0.127E+00
 -20.820  0.124E+00  0.124E+00
 -20.819  0.122E+00  0.122E+00
 -20.818  0.123E+00  0.123E+00
 -20.817  0.124E+00  0.124E+00
 -20.816  0.125E+00  0.125E+00
 -20.815  0.126E+00  0.126E+00
 -20.814  0.127E+00  0.127E+00
 -20.813  0.128E+00  0.128E+00
 -20.812  0.129E+00  0.129E+00
 -20.811  0.130E+00  0.130E+00
 -20.810  0.130E+00  0.130E+00
 -20.809  0.131E+00  0.131E+00
 -20.808  0.132E+00  0.132E+00
 -20.807  0.133E+00  0.133E+00
 -20.806  0.134E+00  0.134E+00
 -20.805  0.136E+00  0.136E+00
 -20.804  0.315E+00  0.315E+00
 -20.803  0.180E+00  0.180E+00
 -20.802  0.135E+00  0.135E+00
 -20.801  0.131E+00  0.131E+00
 -20.800  0.127E+00  0.127E+00
 -20.799  0.124E+00  0.124E+00
 -20.798  0.122E+00  0.122E+00
 -20.797  0.119E+00  0.119E+00
 -20.796  0.117E+00  0.117E+00
 -20.795  0.115E+00  0.115E+00
 -20.794  0.113E+00  0.113E+00
 -20.793  0.111E+00  0.111E+00
 -20.792  0.109E+00  0.109E+00
 -20.791  0.108E+00  0.108E+00
 -20.790  0.106E+00  0.106E+00
 -20.789  0.105E+00  0.105E+00
 -20.788  0.104E+00  0.104E+00
 -20.787  0.106E+00  0.106E+00
 -20.786  0.108E+00  0.108E+00
 -20.785  0.110E+00  0.110E+00
 -20.784  0.112E+00  0.112E+00
 -20.783  0.115E+00  0.115E+00
 -20.782  0.118E+00  0.118E+00
 -20.781  0.121E+00  0.121E+00
 -20.780  0.125E+00  0.125E+00
 -20.779  0.128E+00  0.128E+00
 -20.778  0.132E+00  0.132E+00
 -20.777  0.136E+00  0.136E+00
 -20.776  0.140E+00  0.140E+00
 -20.775  0.183E+00  0.183E+00
 -20.774  0.156E+00  0.156E+00
 -20.773  0.154E+00  0.154E+00
 -20.772  0.153E+00  0.153E+00
 -20.771  0.151E+00  0.151E+00
 -20.770  0.150E+00  0.150E+00
 -20.769  0.148E+00  0.148E+00
 -20.768  0.147E+00  0.147E+00
 -20.767  0.146E+00  0.146E+00
 -20.766  0.145E+00  0.145E+00
 -20.765  0.166E+00  0.166E+00
 -20.764  0.153E+00  0.153E+00
 -20.763  0.145E+00  0.145E+00
 -20.762  0.137E+00  0.137E+00
 -20.761  0.128E+00  0.128E+00
 -20.760  0.122E+00  0.122E+00
 -20.759  0.121E+00  0.121E+00
 -20.758  0.121E+00  0.121E+00
 -20.757  0.120E+00  0.120E+00
 -20.756  0.120E+00  0.120E+00
 -20.755  0.119E+00  0.119E+00
 -20.754  0.119E+00  0.119E+00
 -20.753  0.119E+00  0.119E+00
 -20.752  0.118E+00  0.118E+00
 -20.751  0.118E+00  0.118E+00
 -20.750  0.117E+00  0.117E+00
 -20.749  0.117E+00  0.117E+00
 -20.748  0.117E+00  0.117E+00
 -20.747  0.116E+00  0.116E+00
 -20.746  0.116E+00  0.116E+00
 -20.745  0.110E+00  0.110E+00
 -20.744  0.110E+00  0.110E+00
 -20.743  0.109E+00  0.109E+00
 -20.742  0.108E+00  0.108E+00
 -20.741  0.108E+00  0.108E+00
 -20.740  0.108E+00  0.108E+00
 -20.739  0.108E+00  0.108E+00
 -20.738  0.109E+00  0.109E+00
 -20.737  0.109E+00  0.109E+00
 -20.736  0.110E+00  0.110E+00
 -20.735  0.162E+00  0.162E+00
 -20.734  0.152E+00  0.152E+00
 -20.733  0.142E+00  0.142E+00
 -20.732  0.132E+00  0.132E+00
 -20.731  0.121E+00  0.121E+00
 -20.730  0.111E+00  0.111E+00
 -20.729  0.105E+00  0.105E+00
 -20.728  0.105E+00  0.105E+00
 -20.727  0.106E+00  0.106E+00
 -20.726  0.107E+00  0.107E+00
 -20.725  0.120E+00  0.120E+00
 -20.724  0.125E+00  0.125E+00
 -20.723  0.130E+00  0.130E+00
 -20.722  0.136E+00  0.136E+00
 -20.721  0.141E+00  0.141E+00
 -20.720  0.147E+00  0.147E+00
 -20.719  0.152E+00  0.152E+00
 -20.718  0.158E+00  0.158E+00
 -20.717  0.163E+00  0.163E+00
 -20.716  0.123E+00  0.123E+00
 -20.715  0.120E+00  0.120E+00
 -20.714  0.116E+00  0.116E+00
 -20.713  0.113E+00  0.113E+00
 -20.712  0.112E+00  0.112E+00
 -20.711  0.112E+00  0.112E+00
 -20.710  0.112E+00  0.112E+00
 -20.709  0.112E+00  0.112E+00
 -20.708  0.112E+00  0.112E+00
 -20.707  0.112E+00  0.112E+00
 -20.706  0.112E+00  0.112E+00
 -20.705  0.112E+00  0.112E+00
 -20.704  0.115E+00  0.115E+00
 -20.703  0.118E+00  0.118E+00
 -20.702  0.122E+00  0.122E+00
 -20.701  0.123E+00  0.123E+00
 -20.700  0.123E+00  0.123E+00
 -20.699  0.123E+00  0.123E+00
 -20.698  0.122E+00  0.122E+00
 -20.697  0.122E+00  0.122E+00
 -20.696  0.122E+00  0.122E+00
 -20.695  0.122E+00  0.122E+00
 -20.694  0.122E+00  0.122E+00
 -20.693  0.122E+00  0.122E+00
 -20.692  0.121E+00  0.121E+00
 -20.691  0.121E+00  0.121E+00
 -20.690  0.121E+00  0.121E+00
 -20.689  0.121E+00  0.121E+00
 -20.688  0.121E+00  0.121E+00
 -20.687  0.120E+00  0.120E+00
 -20.686  0.469E+00  0.469E+00
 -20.685  0.114E+00  0.114E+00
 -20.684  0.113E+00  0.113E+00
 -20.683  0.113E+00  0.113E+00
 -20.682  0.113E+00  0.113E+00
 -20.681  0.127E+00  0.127E+00
 -20.680  0.143E+00  0.143E+00
 -20.679  0.160E+00  0.160E+00
 -20.678  0.177E+00  0.177E+00
 -20.677  0.195E+00  0.195E+00
 -20.676  0.111E+00  0.111E+00
 -20.675  0.111E+00  0.111E+00
 -20.674  0.111E+00  0.111E+00
 -20.673  0.111E+00  0.111E+00
 -20.672  0.111E+00  0.111E+00
 -20.671  0.111E+00  0.111E+00
 -20.670  0.111E+00  0.111E+00
 -20.669  0.112E+00  0.112E+00
 -20.668  0.112E+00  0.112E+00
 -20.667  0.112E+00  0.112E+00
 -20.666  0.113E+00  0.113E+00
 -20.665  0.113E+00  0.113E+00
 -20.664  0.114E+00  0.114E+00
 -20.663  0.115E+00  0.115E+00
 -20.662  0.115E+00  0.115E+00
 -20.661  0.116E+00  0.116E+00
 -20.660  0.117E+00  0.117E+00
 -20.659  0.117E+00  0.117E+00
 -20.658  0.118E+00  0.118E+00
 -20.657  0.118E+00  0.118E+00
 -20.656  0.119E+00  0.119E+00
 -20.655  0.120E+00  0.120E+00
 -20.654  0.120E+00  0.120E+00
 -20.653  0.119E+00  0.119E+00
 -20.652  0.118E+00  0.118E+00
 -20.651  0.117E+00  0.117E+00
 -20.650  0.115E+00  0.115E+00
 -20.649  0.114E+00  0.114E+00
 -20.648  0.113E+00  0.113E+00
 -20.647  0.113E+00  0.113E+00
 -20.646  0.113E+00  0.113E+00
 -20.645  0.114E+00  0.114E+00
 -20.644  0.114E+00  0.114E+00
 -20.643  0.114E+00  0.114E+00
 -20.642  0.115E+00  0.115E+00
 -20.641  0.115E+00  0.115E+00
 -20.640  0.116E+00  0.116E+00
 -20.639  0.116E+00  0.116E+00
 -20.638  0.115E+00  0.115E+00
 -20.637  0.121E+00  0.121E+00
 -20.636  0.121E+00  0.121E+00
 -20.635  0.122E+00  0.122E+00
 -20.634  0.122E+00  0.122E+00
 -20.633  0.122E+00  0.122E+00
 -20.632  0.123E+00  0.123E+00
 -20.631  0.134E+00  0.134E+00
 -20.630  0.165E+00  0.165E+00
 -20.629  0.217E+00  0.217E+00
 -20.628  0.330E+00  0.330E+00
 -20.627  0.120E+00  0.120E+00
 -20.626  0.120E+00  0.120E+00
 -20.625  0.120E+00  0.120E+00
 -20.624  0.120E+00  0.120E+00
 -20.623  0.120E+00  0.120E+00
 -20.622  0.121E+00  0.121E+00
 -20.621  0.122E+00  0.122E+00
 -20.620  0.124E+00  0.124E+00
 -20.619  0.125E+00  0.125E+00
 -20.618  0.127E+00  0.127E+00
 -20.617  0.131E+00  0.131E+00
 -20.616  0.134E+00  0.134E+00
 -20.615  0.134E+00  0.134E+00
 -20.614  0.133E+00  0.133E+00
 -20.613  0.132E+00  0.132E+00
 -20.612  0.132E+00  0.132E+00
 -20.611  0.133E+00  0.133E+00
 -20.610  0.134E+00  0.134E+00
 -20.609  0.135E+00  0.135E+00
 -20.608  0.136E+00  0.136E+00
 -20.607  0.137E+00  0.137E+00
 -20.606  0.138E+00  0.138E+00
 -20.605  0.139E+00  0.139E+00
 -20.604  0.140E+00  0.140E+00
 -20.603  0.142E+00  0.142E+00
 -20.602  0.148E+00  0.148E+00
 -20.601  0.157E+00  0.157E+00
 -20.600  0.165E+00  0.165E+00
 -20.599  0.173E+00  0.173E+00
 -20.598  0.181E+00  0.181E+00
 -20.597  0.189E+00  0.189E+00
 -20.596  0.197E+00  0.197E+00
 -20.595  0.202E+00  0.202E+00
 -20.594  0.191E+00  0.191E+00
 -20.593  0.180E+00  0.180E+00
 -20.592  0.170E+00  0.170E+00
 -20.591  0.159E+00  0.159E+00
 -20.590  0.148E+00  0.148E+00
 -20.589  0.137E+00  0.137E+00
 -20.588  0.127E+00  0.127E+00
 -20.587  0.124E+00  0.124E+00
 -20.586  0.121E+00  0.121E+00
 -20.585  0.118E+00  0.118E+00
 -20.584  0.114E+00  0.114E+00
 -20.583  0.111E+00  0.111E+00
 -20.582  0.108E+00  0.108E+00
 -20.581  0.104E+00  0.104E+00
 -20.580  0.101E+00  0.101E+00
 -20.579  0.115E+00  0.115E+00
 -20.578  0.109E+00  0.109E+00
 -20.577  0.102E+00  0.102E+00
 -20.576  0.946E-01  0.946E-01
 -20.575  0.879E-01  0.879E-01
 -20.574  0.820E-01  0.820E-01
 -20.573  0.760E-01  0.760E-01
 -20.572  0.699E-01  0.699E-01
 -20.571  0.647E-01  0.647E-01
 -20.570  0.602E-01  0.602E-01
 -20.569  0.787E-01  0.787E-01
 -20.568  0.746E-01  0.746E-01
 -20.567  0.724E-01  0.724E-01
 -20.566  0.694E-01  0.694E-01
 -20.565  0.646E-01  0.646E-01
 -20.564  0.654E-01  0.654E-01
 -20.563  0.848E-01  0.848E-01
 -20.562  0.105E+00  0.105E+00
 -20.561  0.125E+00  0.125E+00
 -20.560  0.146E+00  0.146E+00
 -20.559  0.757E-01  0.757E-01
 -20.558  0.730E-01  0.730E-01
 -20.557  0.703E-01  0.703E-01
 -20.556  0.676E-01  0.676E-01
 -20.555  0.650E-01  0.650E-01
 -20.554  0.623E-01  0.623E-01
 -20.553  0.597E-01  0.597E-01
 -20.552  0.571E-01  0.571E-01
 -20.551  0.546E-01  0.546E-01
 -20.550  0.521E-01  0.521E-01
 -20.549  0.553E-01  0.553E-01
 -20.548  0.613E-01  0.613E-01
 -20.547  0.673E-01  0.673E-01
 -20.546  0.732E-01  0.732E-01
 -20.545  0.792E-01  0.792E-01
 -20.544  0.885E-01  0.885E-01
 -20.543  0.987E-01  0.987E-01
 -20.542  0.109E+00  0.109E+00
 -20.541  0.119E+00  0.119E+00
 -20.540  0.129E+00  0.129E+00
 -20.539  0.156E+00  0.156E+00
 -20.538  0.164E+00  0.164E+00
 -20.537  0.172E+00  0.172E+00
 -20.536  0.171E+00  0.171E+00
 -20.535  0.167E+00  0.167E+00
 -20.534  0.162E+00  0.162E+00
 -20.533  0.157E+00  0.157E+00
 -20.532  0.152E+00  0.152E+00
 -20.531  0.147E+00  0.147E+00
 -20.530  0.142E+00  0.142E+00
 -20.529  0.136E+00  0.136E+00
 -20.528  0.131E+00  0.131E+00
 -20.527  0.126E+00  0.126E+00
 -20.526  0.121E+00  0.121E+00
 -20.525  0.118E+00  0.118E+00
 -20.524  0.117E+00  0.117E+00
 -20.523  0.116E+00  0.116E+00
 -20.522  0.114E+00  0.114E+00
 -20.521  0.113E+00  0.113E+00
 -20.520  0.110E+00  0.110E+00
 -20.519  0.109E+00  0.109E+00
 -20.518  0.109E+00  0.109E+00
 -20.517  0.108E+00  0.108E+00
 -20.516  0.108E+00  0.108E+00
 -20.515  0.108E+00  0.108E+00
 -20.514  0.107E+00  0.107E+00
 -20.513  0.106E+00  0.106E+00
 -20.512  0.106E+00  0.106E+00
 -20.511  0.105E+00  0.105E+00
 -20.510  0.105E+00  0.105E+00
 -20.509  0.971E-01  0.971E-01
 -20.508  0.893E-01  0.893E-01
 -20.507  0.107E+00  0.107E+00
 -20.506  0.175E+00  0.175E+00
 -20.505  0.254E+00  0.254E+00
 -20.504  0.253E+00  0.253E+00
 -20.503  0.248E+00  0.248E+00
 -20.502  0.243E+00  0.243E+00
 -20.501  0.236E+00  0.236E+00
 -20.500  0.201E+00  0.201E+00
 -20.499  0.175E+00  0.175E+00
 -20.498  0.151E+00  0.151E+00
 -20.497  0.132E+00  0.132E+00
 -20.496  0.125E+00  0.125E+00
 -20.495  0.122E+00  0.122E+00
 -20.494  0.120E+00  0.120E+00
 -20.493  0.119E+00  0.119E+00
 -20.492  0.117E+00  0.117E+00
 -20.491  0.116E+00  0.116E+00
 -20.490  0.117E+00  0.117E+00
 -20.489  0.118E+00  0.118E+00
 -20.488  0.118E+00  0.118E+00
 -20.487  0.119E+00  0.119E+00
 -20.486  0.120E+00  0.120E+00
 -20.485  0.121E+00  0.121E+00
 -20.484  0.122E+00  0.122E+00
 -20.483  0.122E+00  0.122E+00
 -20.482  0.123E+00  0.123E+00
 -20.481  0.103E+00  0.103E+00
 -20.480  0.103E+00  0.103E+00
 -20.479  0.102E+00  0.102E+00
 -20.478  0.102E+00  0.102E+00
 -20.477  0.102E+00  0.102E+00
 -20.476  0.102E+00  0.102E+00
 -20.475  0.102E+00  0.102E+00
 -20.474  0.102E+00  0.102E+00
 -20.473  0.102E+00  0.102E+00
 -20.472  0.102E+00  0.102E+00
 -20.471  0.973E-01  0.973E-01
 -20.470  0.975E-01  0.975E-01
 -20.469  0.979E-01  0.979E-01
 -20.468  0.982E-01  0.982E-01
 -20.467  0.985E-01  0.985E-01
 -20.466  0.985E-01  0.985E-01
 -20.465  0.991E-01  0.991E-01
 -20.464  0.100E+00  0.100E+00
 -20.463  0.101E+00  0.101E+00
 -20.462  0.102E+00  0.102E+00
 -20.461  0.102E+00  0.102E+00
 -20.460  0.103E+00  0.103E+00
 -20.459  0.104E+00  0.104E+00
 -20.458  0.105E+00  0.105E+00
 -20.457  0.106E+00  0.106E+00
 -20.456  0.106E+00  0.106E+00
 -20.455  0.107E+00  0.107E+00
 -20.454  0.108E+00  0.108E+00
 -20.453  0.109E+00  0.109E+00
 -20.452  0.109E+00  0.109E+00
 -20.451  0.110E+00  0.110E+00
 -20.450  0.110E+00  0.110E+00
 -20.449  0.111E+00  0.111E+00
 -20.448  0.111E+00  0.111E+00
 -20.447  0.112E+00  0.112E+00
 -20.446  0.112E+00  0.112E+00
 -20.445  0.113E+00  0.113E+00
 -20.444  0.113E+00  0.113E+00
 -20.443  0.114E+00  0.114E+00
 -20.442  0.115E+00  0.115E+00
 -20.441  0.129E+00  0.129E+00
 -20.440  0.139E+00  0.139E+00
 -20.439  0.145E+00  0.145E+00
 -20.438  0.143E+00  0.143E+00
 -20.437  0.139E+00  0.139E+00
 -20.436  0.134E+00  0.134E+00
 -20.435  0.128E+00  0.128E+00
 -20.434  0.122E+00  0.122E+00
 -20.433  0.115E+00  0.115E+00
 -20.432  0.114E+00  0.114E+00
 -20.431  0.129E+00  0.129E+00
 -20.430  0.128E+00  0.128E+00
 -20.429  0.127E+00  0.127E+00
 -20.428  0.125E+00  0.125E+00
 -20.427  0.126E+00  0.126E+00
 -20.426  0.129E+00  0.129E+00
 -20.425  0.133E+00  0.133E+00
 -20.424  0.137E+00  0.137E+00
 -20.423  0.141E+00  0.141E+00
 -20.422  0.174E+00  0.174E+00
 -20.421  0.170E+00  0.170E+00
 -20.420  0.165E+00  0.165E+00
 -20.419  0.161E+00  0.161E+00
 -20.418  0.156E+00  0.156E+00
 -20.417  0.152E+00  0.152E+00
 -20.416  0.148E+00  0.148E+00
 -20.415  0.143E+00  0.143E+00
 -20.414  0.139E+00  0.139E+00
 -20.413  0.134E+00  0.134E+00
 -20.412  0.130E+00  0.130E+00
 -20.411  0.126E+00  0.126E+00
 -20.410  0.122E+00  0.122E+00
 -20.409  0.118E+00  0.118E+00
 -20.408  0.114E+00  0.114E+00
 -20.407  0.113E+00  0.113E+00
 -20.406  0.112E+00  0.112E+00
 -20.405  0.111E+00  0.111E+00
 -20.404  0.110E+00  0.110E+00
 -20.403  0.109E+00  0.109E+00
 -20.402  0.126E+00  0.126E+00
 -20.401  0.123E+00  0.123E+00
 -20.400  0.121E+00  0.121E+00
 -20.399  0.118E+00  0.118E+00
 -20.398  0.116E+00  0.116E+00
 -20.397  0.114E+00  0.114E+00
 -20.396  0.112E+00  0.112E+00
 -20.395  0.111E+00  0.111E+00
 -20.394  0.109E+00  0.109E+00
 -20.393  0.908E-01  0.908E-01
 -20.392  0.887E-01  0.887E-01
 -20.391  0.875E-01  0.875E-01
 -20.390  0.868E-01  0.868E-01
 -20.389  0.861E-01  0.861E-01
 -20.388  0.855E-01  0.855E-01
 -20.387  0.856E-01  0.856E-01
 -20.386  0.859E-01  0.859E-01
 -20.385  0.862E-01  0.862E-01
 -20.384  0.864E-01  0.864E-01
 -20.383  0.868E-01  0.868E-01
 -20.382  0.871E-01  0.871E-01
 -20.381  0.874E-01  0.874E-01
 -20.380  0.878E-01  0.878E-01
 -20.379  0.882E-01  0.882E-01
 -20.378  0.886E-01  0.886E-01
 -20.377  0.900E-01  0.900E-01
 -20.376  0.914E-01  0.914E-01
 -20.375  0.927E-01  0.927E-01
 -20.374  0.939E-01  0.939E-01
 -20.373  0.934E-01  0.934E-01