# E (eV)   ldos(E)   pdos(E)   
 -21.543  0.171E-05  0.171E-05
 -21.542  0.188E-05  0.188E-05
 -21.541  0.206E-05  0.206E-05
 -21.540  0.226E-05  0.226E-05
 -21.539  0.247E-05  0.247E-05
 -21.538  0.271E-05  0.271E-05
 -21.537  0.296E-05  0.296E-05
 -21.536  0.324E-05  0.324E-05
 -21.535  0.354E-05  0.354E-05
 -21.534  0.387E-05  0.387E-05
 -21.533  0.423E-05  0.423E-05
 -21.532  0.463E-05  0.463E-05
 -21.531  0.505E-05  0.505E-05
 -21.530  0.551E-05  0.551E-05
 -21.529  0.602E-05  0.602E-05
 -21.528  0.656E-05  0.656E-05
 -21.527  0.715E-05  0.715E-05
 -21.526  0.779E-05  0.779E-05
 -21.525  0.849E-05  0.849E-05
 -21.524  0.924E-05  0.924E-05
 -21.523  0.101E-04  0.101E-04
 -21.522  0.109E-04  0.109E-04
 -21.521  0.119E-04  0.119E-04
 -21.520  0.129E-04  0.129E-04
 -21.519  0.141E-04  0.141E-04
 -21.518  0.153E-04  0.153E-04
 -21.517  0.166E-04  0.166E-04
 -21.516  0.180E-04  0.180E-04
 -21.515  0.195E-04  0.195E-04
 -21.514  0.212E-04  0.212E-04
 -21.513  0.229E-04  0.229E-04
 -21.512  0.248E-04  0.248E-04
 -21.511  0.269E-04  0.269E-04
 -21.510  0.291E-04  0.291E-04
 -21.509  0.315E-04  0.315E-04
 -21.508  0.341E-04  0.341E-04
 -21.507  0.369E-04  0.369E-04
 -21.506  0.398E-04  0.398E-04
 -21.505  0.430E-04  0.430E-04
 -21.504  0.465E-04  0.465E-04
 -21.503  0.502E-04  0.502E-04
 -21.502  0.541E-04  0.541E-04
 -21.501  0.584E-04  0.584E-04
 -21.500  0.630E-04  0.630E-04
 -21.499  0.679E-04  0.679E-04
 -21.498  0.731E-04  0.731E-04
 -21.497  0.787E-04  0.787E-04
 -21.496  0.847E-04  0.847E-04
 -21.495  0.912E-04  0.912E-04
 -21.494  0.981E-04  0.981E-04
 -21.493  0.105E-03  0.105E-03
 -21.492  0.113E-03  0.113E-03
 -21.491  0.122E-03  0.122E-03
 -21.490  0.131E-03  0.131E-03
 -21.489  0.140E-03  0.140E-03
 -21.488  0.151E-03  0.151E-03
 -21.487  0.161E-03  0.161E-03
 -21.486  0.173E-03  0.173E-03
 -21.485  0.186E-03  0.186E-03
 -21.484  0.199E-03  0.199E-03
 -21.483  0.213E-03  0.213E-03
 -21.482  0.228E-03  0.228E-03
 -21.481  0.244E-03  0.244E-03
 -21.480  0.261E-03  0.261E-03
 -21.479  0.279E-03  0.279E-03
 -21.478  0.298E-03  0.298E-03
 -21.477  0.318E-03  0.318E-03
 -21.476  0.340E-03  0.340E-03
 -21.475  0.363E-03  0.363E-03
 -21.474  0.387E-03  0.387E-03
 -21.473  0.413E-03  0.413E-03
 -21.472  0.440E-03  0.440E-03
 -21.471  0.469E-03  0.469E-03
 -21.470  0.499E-03  0.499E-03
 -21.469  0.532E-03  0.532E-03
 -21.468  0.566E-03  0.566E-03
 -21.467  0.602E-03  0.602E-03
 -21.466  0.640E-03  0.640E-03
 -21.465  0.681E-03  0.681E-03
 -21.464  0.724E-03  0.724E-03
 -21.463  0.769E-03  0.769E-03
 -21.462  0.816E-03  0.816E-03
 -21.461  0.866E-03  0.866E-03
 -21.460  0.919E-03  0.919E-03
 -21.459  0.975E-03  0.975E-03
 -21.458  0.103E-02  0.103E-02
 -21.457  0.110E-02  0.110E-02
 -21.456  0.116E-02  0.116E-02
 -21.455  0.123E-02  0.123E-02
 -21.454  0.130E-02  0.130E-02
 -21.453  0.138E-02  0.138E-02
 -21.452  0.146E-02  0.146E-02
 -21.451  0.154E-02  0.154E-02
 -21.450  0.163E-02  0.163E-02
 -21.449  0.172E-02  0.172E-02
 -21.448  0.182E-02  0.182E-02
 -21.447  0.192E-02  0.192E-02
 -21.446  0.202E-02  0.202E-02
 -21.445  0.213E-02  0.213E-02
 -21.444  0.225E-02  0.225E-02
 -21.443  0.237E-02  0.237E-02
 -21.442  0.250E-02  0.250E-02
 -21.441  0.263E-02  0.263E-02
 -21.440  0.277E-02  0.277E-02
 -21.439  0.291E-02  0.291E-02
 -21.438  0.307E-02  0.307E-02
 -21.437  0.322E-02  0.322E-02
 -21.436  0.339E-02  0.339E-02
 -21.435  0.356E-02  0.356E-02
 -21.434  0.374E-02  0.374E-02
 -21.433  0.393E-02  0.393E-02
 -21.432  0.412E-02  0.412E-02
 -21.431  0.433E-02  0.433E-02
 -21.430  0.454E-02  0.454E-02
 -21.429  0.476E-02  0.476E-02
 -21.428  0.498E-02  0.498E-02
 -21.427  0.522E-02  0.522E-02
 -21.426  0.547E-02  0.547E-02
 -21.425  0.572E-02  0.572E-02
 -21.424  0.599E-02  0.599E-02
 -21.423  0.626E-02  0.626E-02
 -21.422  0.655E-02  0.655E-02
 -21.421  0.685E-02  0.685E-02
 -21.420  0.715E-02  0.715E-02
 -21.419  0.747E-02  0.747E-02
 -21.418  0.780E-02  0.780E-02
 -21.417  0.814E-02  0.814E-02
 -21.416  0.849E-02  0.849E-02
 -21.415  0.886E-02  0.886E-02
 -21.414  0.923E-02  0.923E-02
 -21.413  0.962E-02  0.962E-02
 -21.412  0.100E-01  0.100E-01
 -21.411  0.104E-01  0.104E-01
 -21.410  0.109E-01  0.109E-01
 -21.409  0.113E-01  0.113E-01
 -21.408  0.118E-01  0.118E-01
 -21.407  0.122E-01  0.122E-01
 -21.406  0.127E-01  0.127E-01
 -21.405  0.132E-01  0.132E-01
 -21.404  0.137E-01  0.137E-01
 -21.403  0.142E-01  0.142E-01
 -21.402  0.148E-01  0.148E-01
 -21.401  0.153E-01  0.153E-01
 -21.400  0.159E-01  0.159E-01
 -21.399  0.165E-01  0.165E-01
 -21.398  0.171E-01  0.171E-01
 -21.397  0.177E-01  0.177E-01
 -21.396  0.183E-01  0.183E-01
 -21.395  0.190E-01  0.190E-01
 -21.394  0.196E-01  0.196E-01
 -21.393  0.203E-01  0.203E-01
 -21.392  0.210E-01  0.210E-01
 -21.391  0.217E-01  0.217E-01
 -21.390  0.225E-01  0.225E-01
 -21.389  0.232E-01  0.232E-01
 -21.388  0.240E-01  0.240E-01
 -21.387  0.247E-01  0.247E-01
 -21.386  0.255E-01  0.255E-01
 -21.385  0.263E-01  0.263E-01
 -21.384  0.272E-01  0.272E-01
 -21.383  0.280E-01  0.280E-01
 -21.382  0.289E-01  0.289E-01
 -21.381  0.297E-01  0.297E-01
 -21.380  0.306E-01  0.306E-01
 -21.379  0.315E-01  0.315E-01
 -21.378  0.324E-01  0.324E-01
 -21.377  0.334E-01  0.334E-01
 -21.376  0.343E-01  0.343E-01
 -21.375  0.353E-01  0.353E-01
 -21.374  0.363E-01  0.363E-01
 -21.373  0.373E-01  0.373E-01
 -21.372  0.383E-01  0.383E-01
 -21.371  0.393E-01  0.393E-01
 -21.370  0.403E-01  0.403E-01
 -21.369  0.414E-01  0.414E-01
 -21.368  0.425E-01  0.425E-01
 -21.367  0.435E-01  0.435E-01
 -21.366  0.446E-01  0.446E-01
 -21.365  0.457E-01  0.457E-01
 -21.364  0.468E-01  0.468E-01
 -21.363  0.480E-01  0.480E-01
 -21.362  0.491E-01  0.491E-01
 -21.361  0.503E-01  0.503E-01
 -21.360  0.514E-01  0.514E-01
 -21.359  0.526E-01  0.526E-01
 -21.358  0.538E-01  0.538E-01
 -21.357  0.550E-01  0.550E-01
 -21.356  0.562E-01  0.562E-01
 -21.355  0.574E-01  0.574E-01
 -21.354  0.586E-01  0.586E-01
 -21.353  0.598E-01  0.598E-01
 -21.352  0.610E-01  0.610E-01
 -21.351  0.623E-01  0.623E-01
 -21.350  0.635E-01  0.635E-01
 -21.349  0.647E-01  0.647E-01
 -21.348  0.660E-01  0.660E-01
 -21.347  0.672E-01  0.672E-01
 -21.346  0.685E-01  0.685E-01
 -21.345  0.698E-01  0.698E-01
 -21.344  0.710E-01  0.710E-01
 -21.343  0.723E-01  0.723E-01
 -21.342  0.736E-01  0.736E-01
 -21.341  0.748E-01  0.748E-01
 -21.340  0.761E-01  0.761E-01
 -21.339  0.773E-01  0.773E-01
 -21.338  0.786E-01  0.786E-01
 -21.337  0.799E-01  0.799E-01
 -21.336  0.811E-01  0.811E-01
 -21.335  0.824E-01  0.824E-01
 -21.334  0.836E-01  0.836E-01
 -21.333  0.849E-01  0.849E-01
 -21.332  0.861E-01  0.861E-01
 -21.331  0.874E-01  0.874E-01
 -21.330  0.886E-01  0.886E-01
 -21.329  0.898E-01  0.898E-01
 -21.328  0.910E-01  0.910E-01
 -21.327  0.922E-01  0.922E-01
 -21.326  0.934E-01  0.934E-01
 -21.325  0.946E-01  0.946E-01
 -21.324  0.958E-01  0.958E-01
 -21.323  0.970E-01  0.970E-01
 -21.322  0.981E-01  0.981E-01
 -21.321  0.993E-01  0.993E-01
 -21.320  0.100E+00  0.100E+00
 -21.319  0.102E+00  0.102E+00
 -21.318  0.103E+00  0.103E+00
 -21.317  0.104E+00  0.104E+00
 -21.316  0.105E+00  0.105E+00
 -21.315  0.106E+00  0.106E+00
 -21.314  0.107E+00  0.107E+00
 -21.313  0.108E+00  0.108E+00
 -21.312  0.109E+00  0.109E+00
 -21.311  0.110E+00  0.110E+00
 -21.310  0.111E+00  0.111E+00
 -21.309  0.112E+00  0.112E+00
 -21.308  0.113E+00  0.113E+00
 -21.307  0.114E+00  0.114E+00
 -21.306  0.115E+00  0.115E+00
 -21.305  0.116E+00  0.116E+00
 -21.304  0.117E+00  0.117E+00
 -21.303  0.118E+00  0.118E+00
 -21.302  0.119E+00  0.119E+00
 -21.301  0.119E+00  0.119E+00
 -21.300  0.120E+00  0.120E+00
 -21.299  0.121E+00  0.121E+00
 -21.298  0.122E+00  0.122E+00
 -21.297  0.123E+00  0.123E+00
 -21.296  0.123E+00  0.123E+00
 -21.295  0.124E+00  0.124E+00
 -21.294  0.125E+00  0.125E+00
 -21.293  0.126E+00  0.126E+00
 -21.292  0.126E+00  0.126E+00
 -21.291  0.127E+00  0.127E+00
 -21.290  0.128E+00  0.128E+00
 -21.289  0.128E+00  0.128E+00
 -21.288  0.129E+00  0.129E+00
 -21.287  0.129E+00  0.129E+00
 -21.286  0.130E+00  0.130E+00
 -21.285  0.131E+00  0.131E+00
 -21.284  0.131E+00  0.131E+00
 -21.283  0.132E+00  0.132E+00
 -21.282  0.132E+00  0.132E+00
 -21.281  0.133E+00  0.133E+00
 -21.280  0.133E+00  0.133E+00
 -21.279  0.134E+00  0.134E+00
 -21.278  0.134E+00  0.134E+00
 -21.277  0.134E+00  0.134E+00
 -21.276  0.135E+00  0.135E+00
 -21.275  0.135E+00  0.135E+00
 -21.274  0.136E+00  0.136E+00
 -21.273  0.136E+00  0.136E+00
 -21.272  0.136E+00  0.136E+00
 -21.271  0.137E+00  0.137E+00
 -21.270  0.137E+00  0.137E+00
 -21.269  0.137E+00  0.137E+00
 -21.268  0.137E+00  0.137E+00
 -21.267  0.138E+00  0.138E+00
 -21.266  0.138E+00  0.138E+00
 -21.265  0.138E+00  0.138E+00
 -21.264  0.138E+00  0.138E+00
 -21.263  0.139E+00  0.139E+00
 -21.262  0.139E+00  0.139E+00
 -21.261  0.139E+00  0.139E+00
 -21.260  0.139E+00  0.139E+00
 -21.259  0.139E+00  0.139E+00
 -21.258  0.140E+00  0.140E+00
 -21.257  0.140E+00  0.140E+00
 -21.256  0.140E+00  0.140E+00
 -21.255  0.140E+00  0.140E+00
 -21.254  0.140E+00  0.140E+00
 -21.253  0.140E+00  0.140E+00
 -21.252  0.140E+00  0.140E+00
 -21.251  0.140E+00  0.140E+00
 -21.250  0.140E+00  0.140E+00
 -21.249  0.140E+00  0.140E+00
 -21.248  0.141E+00  0.141E+00
 -21.247  0.141E+00  0.141E+00
 -21.246  0.141E+00  0.141E+00
 -21.245  0.141E+00  0.141E+00
 -21.244  0.141E+00  0.141E+00
 -21.243  0.141E+00  0.141E+00
 -21.242  0.141E+00  0.141E+00
 -21.241  0.141E+00  0.141E+00
 -21.240  0.141E+00  0.141E+00
 -21.239  0.141E+00  0.141E+00
 -21.238  0.141E+00  0.141E+00
 -21.237  0.141E+00  0.141E+00
 -21.236  0.141E+00  0.141E+00
 -21.235  0.141E+00  0.141E+00
 -21.234  0.141E+00  0.141E+00
 -21.233  0.141E+00  0.141E+00
 -21.232  0.141E+00  0.141E+00
 -21.231  0.141E+00  0.141E+00
 -21.230  0.140E+00  0.140E+00
 -21.229  0.140E+00  0.140E+00
 -21.228  0.140E+00  0.140E+00
 -21.227  0.140E+00  0.140E+00
 -21.226  0.140E+00  0.140E+00
 -21.225  0.140E+00  0.140E+00
 -21.224  0.140E+00  0.140E+00
 -21.223  0.140E+00  0.140E+00
 -21.222  0.140E+00  0.140E+00
 -21.221  0.140E+00  0.140E+00
 -21.220  0.140E+00  0.140E+00
 -21.219  0.140E+00  0.140E+00
 -21.218  0.140E+00  0.140E+00
 -21.217  0.140E+00  0.140E+00
 -21.216  0.140E+00  0.140E+00
 -21.215  0.139E+00  0.139E+00
 -21.214  0.139E+00  0.139E+00
 -21.213  0.139E+00  0.139E+00
 -21.212  0.139E+00  0.139E+00
 -21.211  0.139E+00  0.139E+00
 -21.210  0.139E+00  0.139E+00
 -21.209  0.139E+00  0.139E+00
 -21.208  0.139E+00  0.139E+00
 -21.207  0.139E+00  0.139E+00
 -21.206  0.139E+00  0.139E+00
 -21.205  0.139E+00  0.139E+00
 -21.204  0.139E+00  0.139E+00
 -21.203  0.139E+00  0.139E+00
 -21.202  0.138E+00  0.138E+00
 -21.201  0.138E+00  0.138E+00
 -21.200  0.138E+00  0.138E+00
 -21.199  0.138E+00  0.138E+00
 -21.198  0.138E+00  0.138E+00
 -21.197  0.138E+00  0.138E+00
 -21.196  0.138E+00  0.138E+00
 -21.195  0.138E+00  0.138E+00
 -21.194  0.138E+00  0.138E+00
 -21.193  0.138E+00  0.138E+00
 -21.192  0.138E+00  0.138E+00
 -21.191  0.138E+00  0.138E+00
 -21.190  0.138E+00  0.138E+00
 -21.189  0.138E+00  0.138E+00
 -21.188  0.137E+00  0.137E+00
 -21.187  0.137E+00  0.137E+00
 -21.186  0.137E+00  0.137E+00
 -21.185  0.137E+00  0.137E+00
 -21.184  0.137E+00  0.137E+00
 -21.183  0.137E+00  0.137E+00
 -21.182  0.137E+00  0.137E+00
 -21.181  0.137E+00  0.137E+00
 -21.180  0.137E+00  0.137E+00
 -21.179  0.137E+00  0.137E+00
 -21.178  0.137E+00  0.137E+00
 -21.177  0.137E+00  0.137E+00
 -21.176  0.137E+00  0.137E+00
 -21.175  0.137E+00  0.137E+00
 -21.174  0.137E+00  0.137E+00
 -21.173  0.137E+00  0.137E+00
 -21.172  0.137E+00  0.137E+00
 -21.171  0.136E+00  0.136E+00
 -21.170  0.136E+00  0.136E+00
 -21.169  0.136E+00  0.136E+00
 -21.168  0.136E+00  0.136E+00
 -21.167  0.136E+00  0.136E+00
 -21.166  0.136E+00  0.136E+00
 -21.165  0.136E+00  0.136E+00
 -21.164  0.136E+00  0.136E+00
 -21.163  0.136E+00  0.136E+00
 -21.162  0.136E+00  0.136E+00
 -21.161  0.136E+00  0.136E+00
 -21.160  0.136E+00  0.136E+00
 -21.159  0.136E+00  0.136E+00
 -21.158  0.136E+00  0.136E+00
 -21.157  0.136E+00  0.136E+00
 -21.156  0.136E+00  0.136E+00
 -21.155  0.136E+00  0.136E+00
 -21.154  0.136E+00  0.136E+00
 -21.153  0.136E+00  0.136E+00
 -21.152  0.136E+00  0.136E+00
 -21.151  0.136E+00  0.136E+00
 -21.150  0.136E+00  0.136E+00
 -21.149  0.136E+00  0.136E+00
 -21.148  0.136E+00  0.136E+00
 -21.147  0.135E+00  0.135E+00
 -21.146  0.135E+00  0.135E+00
 -21.145  0.135E+00  0.135E+00
 -21.144  0.135E+00  0.135E+00
 -21.143  0.135E+00  0.135E+00
 -21.142  0.135E+00  0.135E+00
 -21.141  0.135E+00  0.135E+00
 -21.140  0.135E+00  0.135E+00
 -21.139  0.135E+00  0.135E+00
 -21.138  0.135E+00  0.135E+00
 -21.137  0.135E+00  0.135E+00
 -21.136  0.135E+00  0.135E+00
 -21.135  0.135E+00  0.135E+00
 -21.134  0.135E+00  0.135E+00
 -21.133  0.135E+00  0.135E+00
 -21.132  0.135E+00  0.135E+00
 -21.131  0.135E+00  0.135E+00
 -21.130  0.135E+00  0.135E+00
 -21.129  0.135E+00  0.135E+00
 -21.128  0.135E+00  0.135E+00
 -21.127  0.135E+00  0.135E+00
 -21.126  0.135E+00  0.135E+00
 -21.125  0.135E+00  0.135E+00
 -21.124  0.135E+00  0.135E+00
 -21.123  0.135E+00  0.135E+00
 -21.122  0.135E+00  0.135E+00
 -21.121  0.135E+00  0.135E+00
 -21.120  0.135E+00  0.135E+00
 -21.119  0.135E+00  0.135E+00
 -21.118  0.135E+00  0.135E+00
 -21.117  0.135E+00  0.135E+00
 -21.116  0.135E+00  0.135E+00
 -21.115  0.135E+00  0.135E+00
 -21.114  0.135E+00  0.135E+00
 -21.113  0.134E+00  0.134E+00
 -21.112  0.134E+00  0.134E+00
 -21.111  0.134E+00  0.134E+00
 -21.110  0.134E+00  0.134E+00
 -21.109  0.134E+00  0.134E+00
 -21.108  0.134E+00  0.134E+00
 -21.107  0.134E+00  0.134E+00
 -21.106  0.134E+00  0.134E+00
 -21.105  0.134E+00  0.134E+00
 -21.104  0.134E+00  0.134E+00
 -21.103  0.134E+00  0.134E+00
 -21.102  0.134E+00  0.134E+00
 -21.101  0.134E+00  0.134E+00
 -21.100  0.134E+00  0.134E+00
 -21.099  0.134E+00  0.134E+00
 -21.098  0.134E+00  0.134E+00
 -21.097  0.134E+00  0.134E+00
 -21.096  0.134E+00  0.134E+00
 -21.095  0.134E+00  0.134E+00
 -21.094  0.134E+00  0.134E+00
 -21.093  0.134E+00  0.134E+00
 -21.092  0.134E+00  0.134E+00
 -21.091  0.134E+00  0.134E+00
 -21.090  0.134E+00  0.134E+00
 -21.089  0.134E+00  0.134E+00
 -21.088  0.134E+00  0.134E+00
 -21.087  0.134E+00  0.134E+00
 -21.086  0.134E+00  0.134E+00
 -21.085  0.134E+00  0.134E+00
 -21.084  0.134E+00  0.134E+00
 -21.083  0.133E+00  0.133E+00
 -21.082  0.133E+00  0.133E+00
 -21.081  0.133E+00  0.133E+00
 -21.080  0.133E+00  0.133E+00
 -21.079  0.133E+00  0.133E+00
 -21.078  0.133E+00  0.133E+00
 -21.077  0.133E+00  0.133E+00
 -21.076  0.133E+00  0.133E+00
 -21.075  0.133E+00  0.133E+00
 -21.074  0.133E+00  0.133E+00
 -21.073  0.133E+00  0.133E+00
 -21.072  0.133E+00  0.133E+00
 -21.071  0.133E+00  0.133E+00
 -21.070  0.133E+00  0.133E+00
 -21.069  0.133E+00  0.133E+00
 -21.068  0.133E+00  0.133E+00
 -21.067  0.133E+00  0.133E+00
 -21.066  0.133E+00  0.133E+00
 -21.065  0.133E+00  0.133E+00
 -21.064  0.133E+00  0.133E+00
 -21.063  0.133E+00  0.133E+00
 -21.062  0.133E+00  0.133E+00
 -21.061  0.133E+00  0.133E+00
 -21.060  0.133E+00  0.133E+00
 -21.059  0.133E+00  0.133E+00
 -21.058  0.132E+00  0.132E+00
 -21.057  0.132E+00  0.132E+00
 -21.056  0.132E+00  0.132E+00
 -21.055  0.132E+00  0.132E+00
 -21.054  0.132E+00  0.132E+00
 -21.053  0.132E+00  0.132E+00
 -21.052  0.132E+00  0.132E+00
 -21.051  0.132E+00  0.132E+00
 -21.050  0.132E+00  0.132E+00
 -21.049  0.132E+00  0.132E+00
 -21.048  0.132E+00  0.132E+00
 -21.047  0.132E+00  0.132E+00
 -21.046  0.132E+00  0.132E+00
 -21.045  0.132E+00  0.132E+00
 -21.044  0.132E+00  0.132E+00
 -21.043  0.132E+00  0.132E+00
 -21.042  0.132E+00  0.132E+00
 -21.041  0.132E+00  0.132E+00
 -21.040  0.132E+00  0.132E+00
 -21.039  0.132E+00  0.132E+00
 -21.038  0.132E+00  0.132E+00
 -21.037  0.132E+00  0.132E+00
 -21.036  0.131E+00  0.131E+00
 -21.035  0.131E+00  0.131E+00
 -21.034  0.131E+00  0.131E+00
 -21.033  0.131E+00  0.131E+00
 -21.032  0.131E+00  0.131E+00
 -21.031  0.131E+00  0.131E+00
 -21.030  0.131E+00  0.131E+00
 -21.029  0.131E+00  0.131E+00
 -21.028  0.131E+00  0.131E+00
 -21.027  0.131E+00  0.131E+00
 -21.026  0.131E+00  0.131E+00
 -21.025  0.131E+00  0.131E+00
 -21.024  0.131E+00  0.131E+00
 -21.023  0.131E+00  0.131E+00
 -21.022  0.131E+00  0.131E+00
 -21.021  0.131E+00  0.131E+00
 -21.020  0.131E+00  0.131E+00
 -21.019  0.131E+00  0.131E+00
 -21.018  0.131E+00  0.131E+00
 -21.017  0.131E+00  0.131E+00
 -21.016  0.130E+00  0.130E+00
 -21.015  0.130E+00  0.130E+00
 -21.014  0.130E+00  0.130E+00
 -21.013  0.130E+00  0.130E+00
 -21.012  0.130E+00  0.130E+00
 -21.011  0.130E+00  0.130E+00
 -21.010  0.130E+00  0.130E+00
 -21.009  0.130E+00  0.130E+00
 -21.008  0.130E+00  0.130E+00
 -21.007  0.130E+00  0.130E+00
 -21.006  0.130E+00  0.130E+00
 -21.005  0.130E+00  0.130E+00
 -21.004  0.130E+00  0.130E+00
 -21.003  0.130E+00  0.130E+00
 -21.002  0.130E+00  0.130E+00
 -21.001  0.130E+00  0.130E+00
 -21.000  0.130E+00  0.130E+00
 -20.999  0.130E+00  0.130E+00
 -20.998  0.130E+00  0.130E+00
 -20.997  0.130E+00  0.130E+00
 -20.996  0.130E+00  0.130E+00
 -20.995  0.129E+00  0.129E+00
 -20.994  0.129E+00  0.129E+00
 -20.993  0.129E+00  0.129E+00
 -20.992  0.129E+00  0.129E+00
 -20.991  0.129E+00  0.129E+00
 -20.990  0.129E+00  0.129E+00
 -20.989  0.129E+00  0.129E+00
 -20.988  0.129E+00  0.129E+00
 -20.987  0.129E+00  0.129E+00
 -20.986  0.129E+00  0.129E+00
 -20.985  0.129E+00  0.129E+00
 -20.984  0.129E+00  0.129E+00
 -20.983  0.129E+00  0.129E+00
 -20.982  0.129E+00  0.129E+00
 -20.981  0.129E+00  0.129E+00
 -20.980  0.129E+00  0.129E+00
 -20.979  0.129E+00  0.129E+00
 -20.978  0.129E+00  0.129E+00
 -20.977  0.129E+00  0.129E+00
 -20.976  0.129E+00  0.129E+00
 -20.975  0.129E+00  0.129E+00
 -20.974  0.128E+00  0.128E+00
 -20.973  0.128E+00  0.128E+00
 -20.972  0.128E+00  0.128E+00
 -20.971  0.128E+00  0.128E+00
 -20.970  0.128E+00  0.128E+00
 -20.969  0.128E+00  0.128E+00
 -20.968  0.128E+00  0.128E+00
 -20.967  0.128E+00  0.128E+00
 -20.966  0.128E+00  0.128E+00
 -20.965  0.128E+00  0.128E+00
 -20.964  0.128E+00  0.128E+00
 -20.963  0.128E+00  0.128E+00
 -20.962  0.128E+00  0.128E+00
 -20.961  0.128E+00  0.128E+00
 -20.960  0.128E+00  0.128E+00
 -20.959  0.128E+00  0.128E+00
 -20.958  0.128E+00  0.128E+00
 -20.957  0.128E+00  0.128E+00
 -20.956  0.128E+00  0.128E+00
 -20.955  0.128E+00  0.128E+00
 -20.954  0.128E+00  0.128E+00
 -20.953  0.128E+00  0.128E+00
 -20.952  0.128E+00  0.128E+00
 -20.951  0.127E+00  0.127E+00
 -20.950  0.127E+00  0.127E+00
 -20.949  0.127E+00  0.127E+00
 -20.948  0.127E+00  0.127E+00
 -20.947  0.127E+00  0.127E+00
 -20.946  0.127E+00  0.127E+00
 -20.945  0.127E+00  0.127E+00
 -20.944  0.127E+00  0.127E+00
 -20.943  0.127E+00  0.127E+00
 -20.942  0.127E+00  0.127E+00
 -20.941  0.127E+00  0.127E+00
 -20.940  0.127E+00  0.127E+00
 -20.939  0.127E+00  0.127E+00
 -20.938  0.127E+00  0.127E+00
 -20.937  0.127E+00  0.127E+00
 -20.936  0.127E+00  0.127E+00
 -20.935  0.127E+00  0.127E+00
 -20.934  0.127E+00  0.127E+00
 -20.933  0.127E+00  0.127E+00
 -20.932  0.127E+00  0.127E+00
 -20.931  0.127E+00  0.127E+00
 -20.930  0.127E+00  0.127E+00
 -20.929  0.127E+00  0.127E+00
 -20.928  0.127E+00  0.127E+00
 -20.927  0.127E+00  0.127E+00
 -20.926  0.127E+00  0.127E+00
 -20.925  0.127E+00  0.127E+00
 -20.924  0.127E+00  0.127E+00
 -20.923  0.126E+00  0.126E+00
 -20.922  0.126E+00  0.126E+00
 -20.921  0.126E+00  0.126E+00
 -20.920  0.126E+00  0.126E+00
 -20.919  0.126E+00  0.126E+00
 -20.918  0.126E+00  0.126E+00
 -20.917  0.126E+00  0.126E+00
 -20.916  0.126E+00  0.126E+00
 -20.915  0.126E+00  0.126E+00
 -20.914  0.126E+00  0.126E+00
 -20.913  0.126E+00  0.126E+00
 -20.912  0.126E+00  0.126E+00
 -20.911  0.126E+00  0.126E+00
 -20.910  0.126E+00  0.126E+00
 -20.909  0.126E+00  0.126E+00
 -20.908  0.126E+00  0.126E+00
 -20.907  0.126E+00  0.126E+00
 -20.906  0.126E+00  0.126E+00
 -20.905  0.126E+00  0.126E+00
 -20.904  0.126E+00  0.126E+00
 -20.903  0.126E+00  0.126E+00
 -20.902  0.126E+00  0.126E+00
 -20.901  0.126E+00  0.126E+00
 -20.900  0.126E+00  0.126E+00
 -20.899  0.126E+00  0.126E+00
 -20.898  0.126E+00  0.126E+00
 -20.897  0.126E+00  0.126E+00
 -20.896  0.126E+00  0.126E+00
 -20.895  0.126E+00  0.126E+00
 -20.894  0.126E+00  0.126E+00
 -20.893  0.126E+00  0.126E+00
 -20.892  0.126E+00  0.126E+00
 -20.891  0.126E+00  0.126E+00
 -20.890  0.125E+00  0.125E+00
 -20.889  0.125E+00  0.125E+00
 -20.888  0.125E+00  0.125E+00
 -20.887  0.125E+00  0.125E+00
 -20.886  0.125E+00  0.125E+00
 -20.885  0.125E+00  0.125E+00
 -20.884  0.125E+00  0.125E+00
 -20.883  0.125E+00  0.125E+00
 -20.882  0.125E+00  0.125E+00
 -20.881  0.125E+00  0.125E+00
 -20.880  0.125E+00  0.125E+00
 -20.879  0.125E+00  0.125E+00
 -20.878  0.125E+00  0.125E+00
 -20.877  0.125E+00  0.125E+00
 -20.876  0.125E+00  0.125E+00
 -20.875  0.125E+00  0.125E+00
 -20.874  0.125E+00  0.125E+00
 -20.873  0.125E+00  0.125E+00
 -20.872  0.125E+00  0.125E+00
 -20.871  0.125E+00  0.125E+00
 -20.870  0.125E+00  0.125E+00
 -20.869  0.125E+00  0.125E+00
 -20.868  0.125E+00  0.125E+00
 -20.867  0.125E+00  0.125E+00
 -20.866  0.125E+00  0.125E+00
 -20.865  0.125E+00  0.125E+00
 -20.864  0.125E+00  0.125E+00
 -20.863  0.125E+00  0.125E+00
 -20.862  0.125E+00  0.125E+00
 -20.861  0.125E+00  0.125E+00
 -20.860  0.125E+00  0.125E+00
 -20.859  0.125E+00  0.125E+00
 -20.858  0.125E+00  0.125E+00
 -20.857  0.124E+00  0.124E+00
 -20.856  0.124E+00  0.124E+00
 -20.855  0.124E+00  0.124E+00
 -20.854  0.124E+00  0.124E+00
 -20.853  0.124E+00  0.124E+00
 -20.852  0.124E+00  0.124E+00
 -20.851  0.124E+00  0.124E+00
 -20.850  0.124E+00  0.124E+00
 -20.849  0.124E+00  0.124E+00
 -20.848  0.124E+00  0.124E+00
 -20.847  0.124E+00  0.124E+00
 -20.846  0.124E+00  0.124E+00
 -20.845  0.124E+00  0.124E+00
 -20.844  0.124E+00  0.124E+00
 -20.843  0.124E+00  0.124E+00
 -20.842  0.124E+00  0.124E+00
 -20.841  0.124E+00  0.124E+00
 -20.840  0.124E+00  0.124E+00
 -20.839  0.124E+00  0.124E+00
 -20.838  0.124E+00  0.124E+00
 -20.837  0.124E+00  0.124E+00
 -20.836  0.124E+00  0.124E+00
 -20.835  0.124E+00  0.124E+00
 -20.834  0.124E+00  0.124E+00
 -20.833  0.124E+00  0.124E+00
 -20.832  0.124E+00  0.124E+00
 -20.831  0.124E+00  0.124E+00
 -20.830  0.124E+00  0.124E+00
 -20.829  0.124E+00  0.124E+00
 -20.828  0.124E+00  0.124E+00
 -20.827  0.124E+00  0.124E+00
 -20.826  0.124E+00  0.124E+00
 -20.825  0.124E+00  0.124E+00
 -20.824  0.124E+00  0.124E+00
 -20.823  0.124E+00  0.124E+00
 -20.822  0.124E+00  0.124E+00
 -20.821  0.124E+00  0.124E+00
 -20.820  0.123E+00  0.123E+00
 -20.819  0.123E+00  0.123E+00
 -20.818  0.123E+00  0.123E+00
 -20.817  0.123E+00  0.123E+00
 -20.816  0.123E+00  0.123E+00
 -20.815  0.123E+00  0.123E+00
 -20.814  0.123E+00  0.123E+00
 -20.813  0.123E+00  0.123E+00
 -20.812  0.123E+00  0.123E+00
 -20.811  0.123E+00  0.123E+00
 -20.810  0.123E+00  0.123E+00
 -20.809  0.123E+00  0.123E+00
 -20.808  0.123E+00  0.123E+00
 -20.807  0.123E+00  0.123E+00
 -20.806  0.123E+00  0.123E+00
 -20.805  0.123E+00  0.123E+00
 -20.804  0.123E+00  0.123E+00
 -20.803  0.123E+00  0.123E+00
 -20.802  0.123E+00  0.123E+00
 -20.801  0.123E+00  0.123E+00
 -20.800  0.123E+00  0.123E+00
 -20.799  0.123E+00  0.123E+00
 -20.798  0.123E+00  0.123E+00
 -20.797  0.123E+00  0.123E+00
 -20.796  0.123E+00  0.123E+00
 -20.795  0.123E+00  0.123E+00
 -20.794  0.123E+00  0.123E+00
 -20.793  0.123E+00  0.123E+00
 -20.792  0.123E+00  0.123E+00
 -20.791  0.123E+00  0.123E+00
 -20.790  0.123E+00  0.123E+00
 -20.789  0.123E+00  0.123E+00
 -20.788  0.123E+00  0.123E+00
 -20.787  0.123E+00  0.123E+00
 -20.786  0.123E+00  0.123E+00
 -20.785  0.123E+00  0.123E+00
 -20.784  0.123E+00  0.123E+00
 -20.783  0.123E+00  0.123E+00
 -20.782  0.123E+00  0.123E+00
 -20.781  0.123E+00  0.123E+00
 -20.780  0.123E+00  0.123E+00
 -20.779  0.123E+00  0.123E+00
 -20.778  0.123E+00  0.123E+00
 -20.777  0.123E+00  0.123E+00
 -20.776  0.123E+00  0.123E+00
 -20.775  0.123E+00  0.123E+00
 -20.774  0.123E+00  0.123E+00
 -20.773  0.123E+00  0.123E+00
 -20.772  0.123E+00  0.123E+00
 -20.771  0.123E+00  0.123E+00
 -20.770  0.123E+00  0.123E+00
 -20.769  0.123E+00  0.123E+00
 -20.768  0.123E+00  0.123E+00
 -20.767  0.123E+00  0.123E+00
 -20.766  0.123E+00  0.123E+00
 -20.765  0.123E+00  0.123E+00
 -20.764  0.123E+00  0.123E+00
 -20.763  0.123E+00  0.123E+00
 -20.762  0.123E+00  0.123E+00
 -20.761  0.123E+00  0.123E+00
 -20.760  0.123E+00  0.123E+00
 -20.759  0.123E+00  0.123E+00
 -20.758  0.122E+00  0.122E+00
 -20.757  0.122E+00  0.122E+00
 -20.756  0.122E+00  0.122E+00
 -20.755  0.122E+00  0.122E+00
 -20.754  0.122E+00  0.122E+00
 -20.753  0.122E+00  0.122E+00
 -20.752  0.122E+00  0.122E+00
 -20.751  0.122E+00  0.122E+00
 -20.750  0.122E+00  0.122E+00
 -20.749  0.122E+00  0.122E+00
 -20.748  0.122E+00  0.122E+00
 -20.747  0.122E+00  0.122E+00
 -20.746  0.122E+00  0.122E+00
 -20.745  0.122E+00  0.122E+00
 -20.744  0.122E+00  0.122E+00
 -20.743  0.122E+00  0.122E+00
 -20.742  0.122E+00  0.122E+00
 -20.741  0.122E+00  0.122E+00
 -20.740  0.122E+00  0.122E+00
 -20.739  0.122E+00  0.122E+00
 -20.738  0.122E+00  0.122E+00
 -20.737  0.122E+00  0.122E+00
 -20.736  0.122E+00  0.122E+00
 -20.735  0.122E+00  0.122E+00
 -20.734  0.122E+00  0.122E+00
 -20.733  0.122E+00  0.122E+00
 -20.732  0.122E+00  0.122E+00
 -20.731  0.122E+00  0.122E+00
 -20.730  0.122E+00  0.122E+00
 -20.729  0.122E+00  0.122E+00
 -20.728  0.122E+00  0.122E+00
 -20.727  0.122E+00  0.122E+00
 -20.726  0.122E+00  0.122E+00
 -20.725  0.122E+00  0.122E+00
 -20.724  0.122E+00  0.122E+00
 -20.723  0.122E+00  0.122E+00
 -20.722  0.122E+00  0.122E+00
 -20.721  0.122E+00  0.122E+00
 -20.720  0.122E+00  0.122E+00
 -20.719  0.122E+00  0.122E+00
 -20.718  0.122E+00  0.122E+00
 -20.717  0.122E+00  0.122E+00
 -20.716  0.121E+00  0.121E+00
 -20.715  0.121E+00  0.121E+00
 -20.714  0.121E+00  0.121E+00
 -20.713  0.121E+00  0.121E+00
 -20.712  0.121E+00  0.121E+00
 -20.711  0.121E+00  0.121E+00
 -20.710  0.121E+00  0.121E+00
 -20.709  0.121E+00  0.121E+00
 -20.708  0.121E+00  0.121E+00
 -20.707  0.121E+00  0.121E+00
 -20.706  0.121E+00  0.121E+00
 -20.705  0.121E+00  0.121E+00
 -20.704  0.121E+00  0.121E+00
 -20.703  0.121E+00  0.121E+00
 -20.702  0.121E+00  0.121E+00
 -20.701  0.121E+00  0.121E+00
 -20.700  0.121E+00  0.121E+00
 -20.699  0.121E+00  0.121E+00
 -20.698  0.121E+00  0.121E+00
 -20.697  0.121E+00  0.121E+00
 -20.696  0.121E+00  0.121E+00
 -20.695  0.121E+00  0.121E+00
 -20.694  0.121E+00  0.121E+00
 -20.693  0.121E+00  0.121E+00
 -20.692  0.121E+00  0.121E+00
 -20.691  0.121E+00  0.121E+00
 -20.690  0.121E+00  0.121E+00
 -20.689  0.121E+00  0.121E+00
 -20.688  0.121E+00  0.121E+00
 -20.687  0.120E+00  0.120E+00
 -20.686  0.120E+00  0.120E+00
 -20.685  0.120E+00  0.120E+00
 -20.684  0.120E+00  0.120E+00
 -20.683  0.120E+00  0.120E+00
 -20.682  0.120E+00  0.120E+00
 -20.681  0.120E+00  0.120E+00
 -20.680  0.120E+00  0.120E+00
 -20.679  0.120E+00  0.120E+00
 -20.678  0.120E+00  0.120E+00
 -20.677  0.120E+00  0.120E+00
 -20.676  0.120E+00  0.120E+00
 -20.675  0.120E+00  0.120E+00
 -20.674  0.120E+00  0.120E+00
 -20.673  0.120E+00  0.120E+00
 -20.672  0.120E+00  0.120E+00
 -20.671  0.120E+00  0.120E+00
 -20.670  0.120E+00  0.120E+00
 -20.669  0.120E+00  0.120E+00
 -20.668  0.120E+00  0.120E+00
 -20.667  0.120E+00  0.120E+00
 -20.666  0.120E+00  0.120E+00
 -20.665  0.120E+00  0.120E+00
 -20.664  0.120E+00  0.120E+00
 -20.663  0.120E+00  0.120E+00
 -20.662  0.119E+00  0.119E+00
 -20.661  0.119E+00  0.119E+00
 -20.660  0.119E+00  0.119E+00
 -20.659  0.119E+00  0.119E+00
 -20.658  0.119E+00  0.119E+00
 -20.657  0.119E+00  0.119E+00
 -20.656  0.119E+00  0.119E+00
 -20.655  0.119E+00  0.119E+00
 -20.654  0.119E+00  0.119E+00
 -20.653  0.119E+00  0.119E+00
 -20.652  0.119E+00  0.119E+00
 -20.651  0.119E+00  0.119E+00
 -20.650  0.119E+00  0.119E+00
 -20.649  0.119E+00  0.119E+00
 -20.648  0.119E+00  0.119E+00
 -20.647  0.119E+00  0.119E+00
 -20.646  0.119E+00  0.119E+00
 -20.645  0.119E+00  0.119E+00
 -20.644  0.119E+00  0.119E+00
 -20.643  0.119E+00  0.119E+00
 -20.642  0.119E+00  0.119E+00
 -20.641  0.119E+00  0.119E+00
 -20.640  0.119E+00  0.119E+00
 -20.639  0.118E+00  0.118E+00
 -20.638  0.118E+00  0.118E+00
 -20.637  0.118E+00  0.118E+00
 -20.636  0.118E+00  0.118E+00
 -20.635  0.118E+00  0.118E+00
 -20.634  0.118E+00  0.118E+00
 -20.633  0.118E+00  0.118E+00
 -20.632  0.118E+00  0.118E+00
 -20.631  0.118E+00  0.118E+00
 -20.630  0.118E+00  0.118E+00
 -20.629  0.118E+00  0.118E+00
 -20.628  0.118E+00  0.118E+00
 -20.627  0.118E+00  0.118E+00
 -20.626  0.118E+00  0.118E+00
 -20.625  0.118E+00  0.118E+00
 -20.624  0.118E+00  0.118E+00
 -20.623  0.118E+00  0.118E+00
 -20.622  0.118E+00  0.118E+00
 -20.621  0.118E+00  0.118E+00
 -20.620  0.118E+00  0.118E+00
 -20.619  0.118E+00  0.118E+00
 -20.618  0.118E+00  0.118E+00
 -20.617  0.118E+00  0.118E+00
 -20.616  0.118E+00  0.118E+00
 -20.615  0.117E+00  0.117E+00
 -20.614  0.117E+00  0.117E+00
 -20.613  0.117E+00  0.117E+00
 -20.612  0.117E+00  0.117E+00
 -20.611  0.117E+00  0.117E+00
 -20.610  0.117E+00  0.117E+00
 -20.609  0.117E+00  0.117E+00
 -20.608  0.117E+00  0.117E+00
 -20.607  0.117E+00  0.117E+00
 -20.606  0.117E+00  0.117E+00
 -20.605  0.117E+00  0.117E+00
 -20.604  0.117E+00  0.117E+00
 -20.603  0.117E+00  0.117E+00
 -20.602  0.117E+00  0.117E+00
 -20.601  0.117E+00  0.117E+00
 -20.600  0.117E+00  0.117E+00
 -20.599  0.117E+00  0.117E+00
 -20.598  0.117E+00  0.117E+00
 -20.597  0.117E+00  0.117E+00
 -20.596  0.117E+00  0.117E+00
 -20.595  0.117E+00  0.117E+00
 -20.594  0.117E+00  0.117E+00
 -20.593  0.117E+00  0.117E+00
 -20.592  0.117E+00  0.117E+00
 -20.591  0.117E+00  0.117E+00
 -20.590  0.117E+00  0.117E+00
 -20.589  0.117E+00  0.117E+00
 -20.588  0.117E+00  0.117E+00
 -20.587  0.117E+00  0.117E+00
 -20.586  0.117E+00  0.117E+00
 -20.585  0.117E+00  0.117E+00
 -20.584  0.117E+00  0.117E+00
 -20.583  0.117E+00  0.117E+00
 -20.582  0.117E+00  0.117E+00
 -20.581  0.116E+00  0.116E+00
 -20.580  0.116E+00  0.116E+00
 -20.579  0.116E+00  0.116E+00
 -20.578  0.116E+00  0.116E+00