# E (eV) pdos(E) 
-21.543  0.312E-06
-21.542  0.342E-06
-21.541  0.375E-06
-21.540  0.411E-06
-21.539  0.450E-06
-21.538  0.493E-06
-21.537  0.540E-06
-21.536  0.590E-06
-21.535  0.646E-06
-21.534  0.706E-06
-21.533  0.772E-06
-21.532  0.843E-06
-21.531  0.920E-06
-21.530  0.100E-05
-21.529  0.110E-05
-21.528  0.120E-05
-21.527  0.130E-05
-21.526  0.142E-05
-21.525  0.155E-05
-21.524  0.168E-05
-21.523  0.183E-05
-21.522  0.199E-05
-21.521  0.217E-05
-21.520  0.236E-05
-21.519  0.256E-05
-21.518  0.278E-05
-21.517  0.302E-05
-21.516  0.328E-05
-21.515  0.355E-05
-21.514  0.385E-05
-21.513  0.418E-05
-21.512  0.453E-05
-21.511  0.490E-05
-21.510  0.531E-05
-21.509  0.574E-05
-21.508  0.621E-05
-21.507  0.672E-05
-21.506  0.726E-05
-21.505  0.784E-05
-21.504  0.847E-05
-21.503  0.914E-05
-21.502  0.987E-05
-21.501  0.106E-04
-21.500  0.115E-04
-21.499  0.124E-04
-21.498  0.133E-04
-21.497  0.143E-04
-21.496  0.154E-04
-21.495  0.166E-04
-21.494  0.179E-04
-21.493  0.192E-04
-21.492  0.206E-04
-21.491  0.222E-04
-21.490  0.238E-04
-21.489  0.256E-04
-21.488  0.274E-04
-21.487  0.294E-04
-21.486  0.315E-04
-21.485  0.338E-04
-21.484  0.362E-04
-21.483  0.388E-04
-21.482  0.415E-04
-21.481  0.444E-04
-21.480  0.475E-04
-21.479  0.508E-04
-21.478  0.543E-04
-21.477  0.580E-04
-21.476  0.619E-04
-21.475  0.661E-04
-21.474  0.705E-04
-21.473  0.752E-04
-21.472  0.801E-04
-21.471  0.854E-04
-21.470  0.910E-04
-21.469  0.969E-04
-21.468  0.103E-03
-21.467  0.110E-03
-21.466  0.117E-03
-21.465  0.124E-03
-21.464  0.132E-03
-21.463  0.140E-03
-21.462  0.149E-03
-21.461  0.158E-03
-21.460  0.167E-03
-21.459  0.178E-03
-21.458  0.188E-03
-21.457  0.200E-03
-21.456  0.211E-03
-21.455  0.224E-03
-21.454  0.237E-03
-21.453  0.251E-03
-21.452  0.265E-03
-21.451  0.280E-03
-21.450  0.296E-03
-21.449  0.313E-03
-21.448  0.331E-03
-21.447  0.349E-03
-21.446  0.368E-03
-21.445  0.389E-03
-21.444  0.410E-03
-21.443  0.432E-03
-21.442  0.455E-03
-21.441  0.479E-03
-21.440  0.504E-03
-21.439  0.531E-03
-21.438  0.558E-03
-21.437  0.587E-03
-21.436  0.617E-03
-21.435  0.649E-03
-21.434  0.681E-03
-21.433  0.715E-03
-21.432  0.751E-03
-21.431  0.788E-03
-21.430  0.826E-03
-21.429  0.866E-03
-21.428  0.908E-03
-21.427  0.951E-03
-21.426  0.996E-03
-21.425  0.104E-02
-21.424  0.109E-02
-21.423  0.114E-02
-21.422  0.119E-02
-21.421  0.125E-02
-21.420  0.130E-02
-21.419  0.136E-02
-21.418  0.142E-02
-21.417  0.148E-02
-21.416  0.155E-02
-21.415  0.161E-02
-21.414  0.168E-02
-21.413  0.175E-02
-21.412  0.182E-02
-21.411  0.190E-02
-21.410  0.198E-02
-21.409  0.206E-02
-21.408  0.214E-02
-21.407  0.223E-02
-21.406  0.231E-02
-21.405  0.240E-02
-21.404  0.250E-02
-21.403  0.259E-02
-21.402  0.269E-02
-21.401  0.279E-02
-21.400  0.290E-02
-21.399  0.300E-02
-21.398  0.311E-02
-21.397  0.322E-02
-21.396  0.334E-02
-21.395  0.346E-02
-21.394  0.358E-02
-21.393  0.370E-02
-21.392  0.383E-02
-21.391  0.396E-02
-21.390  0.409E-02
-21.389  0.422E-02
-21.388  0.436E-02
-21.387  0.450E-02
-21.386  0.465E-02
-21.385  0.479E-02
-21.384  0.494E-02
-21.383  0.510E-02
-21.382  0.525E-02
-21.381  0.541E-02
-21.380  0.557E-02
-21.379  0.573E-02
-21.378  0.590E-02
-21.377  0.607E-02
-21.376  0.624E-02
-21.375  0.642E-02
-21.374  0.660E-02
-21.373  0.678E-02
-21.372  0.696E-02
-21.371  0.715E-02
-21.370  0.734E-02
-21.369  0.753E-02
-21.368  0.772E-02
-21.367  0.792E-02
-21.366  0.811E-02
-21.365  0.831E-02
-21.364  0.852E-02
-21.363  0.872E-02
-21.362  0.893E-02
-21.361  0.914E-02
-21.360  0.935E-02
-21.359  0.956E-02
-21.358  0.977E-02
-21.357  0.999E-02
-21.356  0.102E-01
-21.355  0.104E-01
-21.354  0.106E-01
-21.353  0.109E-01
-21.352  0.111E-01
-21.351  0.113E-01
-21.350  0.115E-01
-21.349  0.118E-01
-21.348  0.120E-01
-21.347  0.122E-01
-21.346  0.124E-01
-21.345  0.127E-01
-21.344  0.129E-01
-21.343  0.131E-01
-21.342  0.133E-01
-21.341  0.136E-01
-21.340  0.138E-01
-21.339  0.140E-01
-21.338  0.143E-01
-21.337  0.145E-01
-21.336  0.147E-01
-21.335  0.149E-01
-21.334  0.152E-01
-21.333  0.154E-01
-21.332  0.156E-01
-21.331  0.158E-01
-21.330  0.161E-01
-21.329  0.163E-01
-21.328  0.165E-01
-21.327  0.167E-01
-21.326  0.169E-01
-21.325  0.171E-01
-21.324  0.173E-01
-21.323  0.176E-01
-21.322  0.178E-01
-21.321  0.180E-01
-21.320  0.182E-01
-21.319  0.184E-01
-21.318  0.186E-01
-21.317  0.188E-01
-21.316  0.190E-01
-21.315  0.191E-01
-21.314  0.193E-01
-21.313  0.195E-01
-21.312  0.197E-01
-21.311  0.199E-01
-21.310  0.201E-01
-21.309  0.202E-01
-21.308  0.204E-01
-21.307  0.206E-01
-21.306  0.207E-01
-21.305  0.209E-01
-21.304  0.211E-01
-21.303  0.212E-01
-21.302  0.214E-01
-21.301  0.215E-01
-21.300  0.217E-01
-21.299  0.218E-01
-21.298  0.219E-01
-21.297  0.221E-01
-21.296  0.222E-01
-21.295  0.223E-01
-21.294  0.225E-01
-21.293  0.226E-01
-21.292  0.227E-01
-21.291  0.228E-01
-21.290  0.229E-01
-21.289  0.230E-01
-21.288  0.231E-01
-21.287  0.232E-01
-21.286  0.233E-01
-21.285  0.234E-01
-21.284  0.235E-01
-21.283  0.236E-01
-21.282  0.237E-01
-21.281  0.238E-01
-21.280  0.238E-01
-21.279  0.239E-01
-21.278  0.240E-01
-21.277  0.240E-01
-21.276  0.241E-01
-21.275  0.242E-01
-21.274  0.242E-01
-21.273  0.243E-01
-21.272  0.243E-01
-21.271  0.244E-01
-21.270  0.244E-01
-21.269  0.245E-01
-21.268  0.245E-01
-21.267  0.246E-01
-21.266  0.246E-01
-21.265  0.246E-01
-21.264  0.247E-01
-21.263  0.247E-01
-21.262  0.247E-01
-21.261  0.247E-01
-21.260  0.248E-01
-21.259  0.248E-01
-21.258  0.248E-01
-21.257  0.248E-01
-21.256  0.248E-01
-21.255  0.248E-01
-21.254  0.248E-01
-21.253  0.248E-01
-21.252  0.249E-01
-21.251  0.249E-01
-21.250  0.249E-01
-21.249  0.249E-01
-21.248  0.249E-01
-21.247  0.249E-01
-21.246  0.249E-01
-21.245  0.248E-01
-21.244  0.248E-01
-21.243  0.248E-01
-21.242  0.248E-01
-21.241  0.248E-01
-21.240  0.248E-01
-21.239  0.248E-01
-21.238  0.248E-01
-21.237  0.248E-01
-21.236  0.248E-01
-21.235  0.247E-01
-21.234  0.247E-01
-21.233  0.247E-01
-21.232  0.247E-01
-21.231  0.247E-01
-21.230  0.247E-01
-21.229  0.246E-01
-21.228  0.246E-01
-21.227  0.246E-01
-21.226  0.246E-01
-21.225  0.246E-01
-21.224  0.245E-01
-21.223  0.245E-01
-21.222  0.245E-01
-21.221  0.245E-01
-21.220  0.245E-01
-21.219  0.244E-01
-21.218  0.244E-01
-21.217  0.244E-01
-21.216  0.244E-01
-21.215  0.244E-01
-21.214  0.243E-01
-21.213  0.243E-01
-21.212  0.243E-01
-21.211  0.243E-01
-21.210  0.242E-01
-21.209  0.242E-01
-21.208  0.242E-01
-21.207  0.242E-01
-21.206  0.242E-01
-21.205  0.241E-01
-21.204  0.241E-01
-21.203  0.241E-01
-21.202  0.241E-01
-21.201  0.241E-01
-21.200  0.240E-01
-21.199  0.240E-01
-21.198  0.240E-01
-21.197  0.240E-01
-21.196  0.240E-01
-21.195  0.239E-01
-21.194  0.239E-01
-21.193  0.239E-01
-21.192  0.239E-01
-21.191  0.239E-01
-21.190  0.239E-01
-21.189  0.238E-01
-21.188  0.238E-01
-21.187  0.238E-01
-21.186  0.238E-01
-21.185  0.238E-01
-21.184  0.238E-01
-21.183  0.238E-01
-21.182  0.237E-01
-21.181  0.237E-01
-21.180  0.237E-01
-21.179  0.237E-01
-21.178  0.237E-01
-21.177  0.237E-01
-21.176  0.237E-01
-21.175  0.236E-01
-21.174  0.236E-01
-21.173  0.236E-01
-21.172  0.236E-01
-21.171  0.236E-01
-21.170  0.236E-01
-21.169  0.236E-01
-21.168  0.236E-01
-21.167  0.236E-01
-21.166  0.235E-01
-21.165  0.235E-01
-21.164  0.235E-01
-21.163  0.235E-01
-21.162  0.235E-01
-21.161  0.235E-01
-21.160  0.235E-01
-21.159  0.235E-01
-21.158  0.235E-01
-21.157  0.235E-01
-21.156  0.235E-01
-21.155  0.234E-01
-21.154  0.234E-01
-21.153  0.234E-01
-21.152  0.234E-01
-21.151  0.234E-01
-21.150  0.234E-01
-21.149  0.234E-01
-21.148  0.234E-01
-21.147  0.234E-01
-21.146  0.234E-01
-21.145  0.234E-01
-21.144  0.234E-01
-21.143  0.234E-01
-21.142  0.233E-01
-21.141  0.233E-01
-21.140  0.233E-01
-21.139  0.233E-01
-21.138  0.233E-01
-21.137  0.233E-01
-21.136  0.233E-01
-21.135  0.233E-01
-21.134  0.233E-01
-21.133  0.233E-01
-21.132  0.233E-01
-21.131  0.233E-01
-21.130  0.233E-01
-21.129  0.232E-01
-21.128  0.232E-01
-21.127  0.232E-01
-21.126  0.232E-01
-21.125  0.232E-01
-21.124  0.232E-01
-21.123  0.232E-01
-21.122  0.232E-01
-21.121  0.232E-01
-21.120  0.232E-01
-21.119  0.232E-01
-21.118  0.232E-01
-21.117  0.231E-01
-21.116  0.231E-01
-21.115  0.231E-01
-21.114  0.231E-01
-21.113  0.231E-01
-21.112  0.231E-01
-21.111  0.231E-01
-21.110  0.231E-01
-21.109  0.231E-01
-21.108  0.231E-01
-21.107  0.230E-01
-21.106  0.230E-01
-21.105  0.230E-01
-21.104  0.230E-01
-21.103  0.230E-01
-21.102  0.230E-01
-21.101  0.230E-01
-21.100  0.230E-01
-21.099  0.229E-01
-21.098  0.229E-01
-21.097  0.229E-01
-21.096  0.229E-01
-21.095  0.229E-01
-21.094  0.229E-01
-21.093  0.229E-01
-21.092  0.229E-01
-21.091  0.228E-01
-21.090  0.228E-01
-21.089  0.228E-01
-21.088  0.228E-01
-21.087  0.228E-01
-21.086  0.228E-01
-21.085  0.228E-01
-21.084  0.227E-01
-21.083  0.227E-01
-21.082  0.227E-01
-21.081  0.227E-01
-21.080  0.227E-01
-21.079  0.227E-01
-21.078  0.227E-01
-21.077  0.226E-01
-21.076  0.226E-01
-21.075  0.226E-01
-21.074  0.226E-01
-21.073  0.226E-01
-21.072  0.226E-01
-21.071  0.225E-01
-21.070  0.225E-01
-21.069  0.225E-01
-21.068  0.225E-01
-21.067  0.225E-01
-21.066  0.225E-01
-21.065  0.224E-01
-21.064  0.224E-01
-21.063  0.224E-01
-21.062  0.224E-01
-21.061  0.224E-01
-21.060  0.224E-01
-21.059  0.223E-01
-21.058  0.223E-01
-21.057  0.223E-01
-21.056  0.223E-01
-21.055  0.223E-01
-21.054  0.223E-01
-21.053  0.223E-01
-21.052  0.222E-01
-21.051  0.222E-01
-21.050  0.222E-01
-21.049  0.222E-01
-21.048  0.222E-01
-21.047  0.222E-01
-21.046  0.221E-01
-21.045  0.221E-01
-21.044  0.221E-01
-21.043  0.221E-01
-21.042  0.221E-01
-21.041  0.221E-01
-21.040  0.220E-01
-21.039  0.220E-01
-21.038  0.220E-01
-21.037  0.220E-01
-21.036  0.220E-01
-21.035  0.220E-01
-21.034  0.219E-01
-21.033  0.219E-01
-21.032  0.219E-01
-21.031  0.219E-01
-21.030  0.219E-01
-21.029  0.219E-01
-21.028  0.218E-01
-21.027  0.218E-01
-21.026  0.218E-01
-21.025  0.218E-01
-21.024  0.218E-01
-21.023  0.218E-01
-21.022  0.217E-01
-21.021  0.217E-01
-21.020  0.217E-01
-21.019  0.217E-01
-21.018  0.217E-01
-21.017  0.217E-01
-21.016  0.217E-01
-21.015  0.216E-01
-21.014  0.216E-01
-21.013  0.216E-01
-21.012  0.216E-01
-21.011  0.216E-01
-21.010  0.216E-01
-21.009  0.215E-01
-21.008  0.215E-01
-21.007  0.215E-01
-21.006  0.215E-01
-21.005  0.215E-01
-21.004  0.215E-01
-21.003  0.215E-01
-21.002  0.214E-01
-21.001  0.214E-01
-21.000  0.214E-01
-20.999  0.214E-01
-20.998  0.214E-01
-20.997  0.214E-01
-20.996  0.214E-01
-20.995  0.213E-01
-20.994  0.213E-01
-20.993  0.213E-01
-20.992  0.213E-01
-20.991  0.213E-01
-20.990  0.213E-01
-20.989  0.213E-01
-20.988  0.213E-01
-20.987  0.212E-01
-20.986  0.212E-01
-20.985  0.212E-01
-20.984  0.212E-01
-20.983  0.212E-01
-20.982  0.212E-01
-20.981  0.212E-01
-20.980  0.212E-01
-20.979  0.211E-01
-20.978  0.211E-01
-20.977  0.211E-01
-20.976  0.211E-01
-20.975  0.211E-01
-20.974  0.211E-01
-20.973  0.211E-01
-20.972  0.211E-01
-20.971  0.210E-01
-20.970  0.210E-01
-20.969  0.210E-01
-20.968  0.210E-01
-20.967  0.210E-01
-20.966  0.210E-01
-20.965  0.210E-01
-20.964  0.210E-01
-20.963  0.210E-01
-20.962  0.210E-01
-20.961  0.209E-01
-20.960  0.209E-01
-20.959  0.209E-01
-20.958  0.209E-01
-20.957  0.209E-01
-20.956  0.209E-01
-20.955  0.209E-01
-20.954  0.209E-01
-20.953  0.209E-01
-20.952  0.209E-01
-20.951  0.209E-01
-20.950  0.208E-01
-20.949  0.208E-01
-20.948  0.208E-01
-20.947  0.208E-01
-20.946  0.208E-01
-20.945  0.208E-01
-20.944  0.208E-01
-20.943  0.208E-01
-20.942  0.208E-01
-20.941  0.208E-01
-20.940  0.208E-01
-20.939  0.208E-01
-20.938  0.208E-01
-20.937  0.208E-01
-20.936  0.208E-01
-20.935  0.208E-01
-20.934  0.207E-01
-20.933  0.207E-01
-20.932  0.207E-01
-20.931  0.207E-01
-20.930  0.207E-01
-20.929  0.207E-01
-20.928  0.207E-01
-20.927  0.207E-01
-20.926  0.207E-01
-20.925  0.207E-01
-20.924  0.207E-01
-20.923  0.207E-01
-20.922  0.207E-01
-20.921  0.207E-01
-20.920  0.207E-01
-20.919  0.207E-01
-20.918  0.207E-01
-20.917  0.207E-01
-20.916  0.207E-01
-20.915  0.207E-01
-20.914  0.207E-01
-20.913  0.207E-01
-20.912  0.207E-01
-20.911  0.207E-01
-20.910  0.207E-01
-20.909  0.207E-01
-20.908  0.207E-01
-20.907  0.207E-01
-20.906  0.206E-01
-20.905  0.206E-01
-20.904  0.206E-01
-20.903  0.206E-01
-20.902  0.206E-01
-20.901  0.206E-01
-20.900  0.206E-01
-20.899  0.206E-01
-20.898  0.206E-01
-20.897  0.206E-01
-20.896  0.206E-01
-20.895  0.206E-01
-20.894  0.206E-01
-20.893  0.206E-01
-20.892  0.206E-01
-20.891  0.206E-01
-20.890  0.206E-01
-20.889  0.206E-01
-20.888  0.206E-01
-20.887  0.206E-01
-20.886  0.206E-01
-20.885  0.206E-01
-20.884  0.206E-01
-20.883  0.206E-01
-20.882  0.206E-01
-20.881  0.206E-01
-20.880  0.206E-01
-20.879  0.206E-01
-20.878  0.206E-01
-20.877  0.206E-01
-20.876  0.206E-01
-20.875  0.206E-01
-20.874  0.206E-01
-20.873  0.206E-01
-20.872  0.206E-01
-20.871  0.206E-01
-20.870  0.206E-01
-20.869  0.205E-01
-20.868  0.205E-01
-20.867  0.205E-01
-20.866  0.205E-01
-20.865  0.205E-01
-20.864  0.205E-01
-20.863  0.205E-01
-20.862  0.205E-01
-20.861  0.205E-01
-20.860  0.205E-01
-20.859  0.205E-01
-20.858  0.205E-01
-20.857  0.205E-01
-20.856  0.205E-01
-20.855  0.205E-01
-20.854  0.205E-01
-20.853  0.205E-01
-20.852  0.205E-01
-20.851  0.205E-01
-20.850  0.205E-01
-20.849  0.205E-01
-20.848  0.205E-01
-20.847  0.204E-01
-20.846  0.204E-01
-20.845  0.204E-01
-20.844  0.204E-01
-20.843  0.204E-01
-20.842  0.204E-01
-20.841  0.204E-01
-20.840  0.204E-01
-20.839  0.204E-01
-20.838  0.204E-01
-20.837  0.204E-01
-20.836  0.204E-01
-20.835  0.204E-01
-20.834  0.204E-01
-20.833  0.204E-01
-20.832  0.204E-01
-20.831  0.204E-01
-20.830  0.203E-01
-20.829  0.203E-01
-20.828  0.203E-01
-20.827  0.203E-01
-20.826  0.203E-01
-20.825  0.203E-01
-20.824  0.203E-01
-20.823  0.203E-01
-20.822  0.203E-01
-20.821  0.203E-01
-20.820  0.203E-01
-20.819  0.203E-01
-20.818  0.203E-01
-20.817  0.203E-01
-20.816  0.202E-01
-20.815  0.202E-01
-20.814  0.202E-01
-20.813  0.202E-01
-20.812  0.202E-01
-20.811  0.202E-01
-20.810  0.202E-01
-20.809  0.202E-01
-20.808  0.202E-01
-20.807  0.202E-01
-20.806  0.202E-01
-20.805  0.202E-01
-20.804  0.202E-01
-20.803  0.201E-01
-20.802  0.201E-01
-20.801  0.201E-01
-20.800  0.201E-01
-20.799  0.201E-01
-20.798  0.201E-01
-20.797  0.201E-01
-20.796  0.201E-01
-20.795  0.201E-01
-20.794  0.201E-01
-20.793  0.201E-01
-20.792  0.201E-01
-20.791  0.200E-01
-20.790  0.200E-01
-20.789  0.200E-01
-20.788  0.200E-01
-20.787  0.200E-01
-20.786  0.200E-01
-20.785  0.200E-01
-20.784  0.200E-01
-20.783  0.200E-01
-20.782  0.200E-01
-20.781  0.200E-01
-20.780  0.199E-01
-20.779  0.199E-01
-20.778  0.199E-01
-20.777  0.199E-01
-20.776  0.199E-01
-20.775  0.199E-01
-20.774  0.199E-01
-20.773  0.199E-01
-20.772  0.199E-01
-20.771  0.199E-01
-20.770  0.198E-01
-20.769  0.198E-01
-20.768  0.198E-01
-20.767  0.198E-01
-20.766  0.198E-01
-20.765  0.198E-01
-20.764  0.198E-01
-20.763  0.198E-01
-20.762  0.198E-01
-20.761  0.198E-01
-20.760  0.198E-01
-20.759  0.197E-01
-20.758  0.197E-01
-20.757  0.197E-01
-20.756  0.197E-01
-20.755  0.197E-01
-20.754  0.197E-01
-20.753  0.197E-01
-20.752  0.197E-01
-20.751  0.197E-01
-20.750  0.197E-01
-20.749  0.196E-01
-20.748  0.196E-01
-20.747  0.196E-01
-20.746  0.196E-01
-20.745  0.196E-01
-20.744  0.196E-01
-20.743  0.196E-01
-20.742  0.196E-01
-20.741  0.196E-01
-20.740  0.196E-01
-20.739  0.196E-01
-20.738  0.195E-01
-20.737  0.195E-01
-20.736  0.195E-01
-20.735  0.195E-01
-20.734  0.195E-01
-20.733  0.195E-01
-20.732  0.195E-01
-20.731  0.195E-01
-20.730  0.195E-01
-20.729  0.195E-01
-20.728  0.194E-01
-20.727  0.194E-01
-20.726  0.194E-01
-20.725  0.194E-01
-20.724  0.194E-01
-20.723  0.194E-01
-20.722  0.194E-01
-20.721  0.194E-01
-20.720  0.194E-01
-20.719  0.194E-01
-20.718  0.194E-01
-20.717  0.193E-01
-20.716  0.193E-01
-20.715  0.193E-01
-20.714  0.193E-01
-20.713  0.193E-01
-20.712  0.193E-01
-20.711  0.193E-01
-20.710  0.193E-01
-20.709  0.193E-01
-20.708  0.193E-01
-20.707  0.193E-01
-20.706  0.192E-01
-20.705  0.192E-01
-20.704  0.192E-01
-20.703  0.192E-01
-20.702  0.192E-01
-20.701  0.192E-01
-20.700  0.192E-01
-20.699  0.192E-01
-20.698  0.192E-01
-20.697  0.192E-01
-20.696  0.192E-01
-20.695  0.191E-01
-20.694  0.191E-01
-20.693  0.191E-01
-20.692  0.191E-01
-20.691  0.191E-01
-20.690  0.191E-01
-20.689  0.191E-01
-20.688  0.191E-01
-20.687  0.191E-01
-20.686  0.191E-01
-20.685  0.191E-01
-20.684  0.191E-01
-20.683  0.190E-01
-20.682  0.190E-01
-20.681  0.190E-01
-20.680  0.190E-01
-20.679  0.190E-01
-20.678  0.190E-01
-20.677  0.190E-01
-20.676  0.190E-01
-20.675  0.190E-01
-20.674  0.190E-01
-20.673  0.190E-01
-20.672  0.190E-01
-20.671  0.190E-01
-20.670  0.189E-01
-20.669  0.189E-01
-20.668  0.189E-01
-20.667  0.189E-01
-20.666  0.189E-01
-20.665  0.189E-01
-20.664  0.189E-01
-20.663  0.189E-01
-20.662  0.189E-01
-20.661  0.189E-01
-20.660  0.189E-01
-20.659  0.189E-01
-20.658  0.189E-01
-20.657  0.189E-01
-20.656  0.189E-01
-20.655  0.188E-01
-20.654  0.188E-01
-20.653  0.188E-01
-20.652  0.188E-01
-20.651  0.188E-01
-20.650  0.188E-01
-20.649  0.188E-01
-20.648  0.188E-01
-20.647  0.188E-01
-20.646  0.188E-01
-20.645  0.188E-01
-20.644  0.188E-01
-20.643  0.188E-01
-20.642  0.188E-01
-20.641  0.188E-01
-20.640  0.188E-01
-20.639  0.188E-01
-20.638  0.187E-01
-20.637  0.187E-01
-20.636  0.187E-01
-20.635  0.187E-01
-20.634  0.187E-01
-20.633  0.187E-01
-20.632  0.187E-01
-20.631  0.187E-01
-20.630  0.187E-01
-20.629  0.187E-01
-20.628  0.187E-01
-20.627  0.187E-01
-20.626  0.187E-01
-20.625  0.187E-01
-20.624  0.187E-01
-20.623  0.187E-01
-20.622  0.187E-01
-20.621  0.187E-01
-20.620  0.187E-01
-20.619  0.187E-01
-20.618  0.187E-01
-20.617  0.187E-01
-20.616  0.187E-01
-20.615  0.186E-01
-20.614  0.186E-01
-20.613  0.186E-01
-20.612  0.186E-01
-20.611  0.186E-01
-20.610  0.186E-01
-20.609  0.186E-01
-20.608  0.186E-01
-20.607  0.186E-01
-20.606  0.186E-01
-20.605  0.186E-01
-20.604  0.186E-01
-20.603  0.186E-01
-20.602  0.186E-01
-20.601  0.186E-01
-20.600  0.186E-01
-20.599  0.186E-01
-20.598  0.186E-01
-20.597  0.186E-01
-20.596  0.186E-01
-20.595  0.186E-01
-20.594  0.186E-01
-20.593  0.186E-01
-20.592  0.186E-01
-20.591  0.186E-01
-20.590  0.186E-01
-20.589  0.186E-01
-20.588  0.186E-01
-20.587  0.186E-01
-20.586  0.186E-01
-20.585  0.186E-01
-20.584  0.186E-01
-20.583  0.186E-01
-20.582  0.186E-01
-20.581  0.185E-01
-20.580  0.185E-01
-20.579  0.185E-01
-20.578  0.185E-01
-20.577  0.185E-01
-20.576  0.185E-01
-20.575  0.185E-01
-20.574  0.185E-01
-20.573  0.185E-01
-20.572  0.185E-01
-20.571  0.185E-01
-20.570  0.185E-01
-20.569  0.185E-01
-20.568  0.185E-01
-20.567  0.185E-01
-20.566  0.185E-01
-20.565  0.185E-01
-20.564  0.185E-01
-20.563  0.185E-01
-20.562  0.185E-01
-20.561  0.185E-01
-20.560  0.185E-01
-20.559  0.185E-01
-20.558  0.185E-01
-20.557  0.185E-01
-20.556  0.185E-01
-20.555  0.185E-01
-20.554  0.185E-01
-20.553  0.185E-01
-20.552  0.185E-01
-20.551  0.185E-01
-20.550  0.185E-01
-20.549  0.185E-01
-20.548  0.185E-01
-20.547  0.184E-01
-20.546  0.184E-01
-20.545  0.184E-01
-20.544  0.184E-01
-20.543  0.184E-01
-20.542  0.184E-01
-20.541  0.184E-01
-20.540  0.184E-01
-20.539  0.184E-01
-20.538  0.184E-01
-20.537  0.184E-01
-20.536  0.184E-01
-20.535  0.184E-01
-20.534  0.184E-01
-20.533  0.184E-01
-20.532  0.184E-01
-20.531  0.184E-01
-20.530  0.184E-01
-20.529  0.184E-01
-20.528  0.184E-01
-20.527  0.184E-01
-20.526  0.184E-01
-20.525  0.184E-01
-20.524  0.184E-01
-20.523  0.184E-01
-20.522  0.184E-01
-20.521  0.183E-01
-20.520  0.183E-01
-20.519  0.183E-01
-20.518  0.183E-01
-20.517  0.183E-01
-20.516  0.183E-01
-20.515  0.183E-01
-20.514  0.183E-01
-20.513  0.183E-01
-20.512  0.183E-01
-20.511  0.183E-01
-20.510  0.183E-01
-20.509  0.183E-01
-20.508  0.183E-01
-20.507  0.183E-01
-20.506  0.183E-01
-20.505  0.183E-01
-20.504  0.183E-01
-20.503  0.183E-01
-20.502  0.183E-01
-20.501  0.183E-01
-20.500  0.182E-01
-20.499  0.182E-01
-20.498  0.182E-01
-20.497  0.182E-01
-20.496  0.182E-01
-20.495  0.182E-01
-20.494  0.182E-01
-20.493  0.182E-01
-20.492  0.182E-01
-20.491  0.182E-01
-20.490  0.182E-01
-20.489  0.182E-01
-20.488  0.182E-01
-20.487  0.182E-01
-20.486  0.182E-01
-20.485  0.182E-01
-20.484  0.182E-01
-20.483  0.182E-01
-20.482  0.182E-01
-20.481  0.181E-01
-20.480  0.181E-01
-20.479  0.181E-01
-20.478  0.181E-01
-20.477  0.181E-01
-20.476  0.181E-01
-20.475  0.181E-01
-20.474  0.181E-01
-20.473  0.181E-01
-20.472  0.181E-01
-20.471  0.181E-01
-20.470  0.181E-01
-20.469  0.181E-01
-20.468  0.181E-01
-20.467  0.181E-01
-20.466  0.181E-01
-20.465  0.181E-01
-20.464  0.181E-01
-20.463  0.180E-01
-20.462  0.180E-01
-20.461  0.180E-01
-20.460  0.180E-01
-20.459  0.180E-01
-20.458  0.180E-01
-20.457  0.180E-01
-20.456  0.180E-01
-20.455  0.180E-01
-20.454  0.180E-01
-20.453  0.180E-01
-20.452  0.180E-01
-20.451  0.180E-01
-20.450  0.180E-01
-20.449  0.180E-01
-20.448  0.180E-01
-20.447  0.180E-01
-20.446  0.180E-01
-20.445  0.180E-01
-20.444  0.179E-01
-20.443  0.179E-01
-20.442  0.179E-01
-20.441  0.179E-01
-20.440  0.179E-01
-20.439  0.179E-01
-20.438  0.179E-01
-20.437  0.179E-01
-20.436  0.179E-01
-20.435  0.179E-01
-20.434  0.179E-01
-20.433  0.179E-01
-20.432  0.179E-01
-20.431  0.179E-01
-20.430  0.179E-01
-20.429  0.179E-01
-20.428  0.179E-01
-20.427  0.179E-01
-20.426  0.178E-01
-20.425  0.178E-01
-20.424  0.178E-01
-20.423  0.178E-01
-20.422  0.178E-01
-20.421  0.178E-01
-20.420  0.178E-01
-20.419  0.178E-01
-20.418  0.178E-01
-20.417  0.178E-01
-20.416  0.178E-01
-20.415  0.178E-01
-20.414  0.178E-01
-20.413  0.178E-01
-20.412  0.178E-01
-20.411  0.178E-01
-20.410  0.178E-01
-20.409  0.178E-01
-20.408  0.178E-01
-20.407  0.178E-01
-20.406  0.177E-01
-20.405  0.177E-01
-20.404  0.177E-01
-20.403  0.177E-01
-20.402  0.177E-01
-20.401  0.177E-01
-20.400  0.177E-01
-20.399  0.177E-01
-20.398  0.177E-01
-20.397  0.177E-01
-20.396  0.177E-01
-20.395  0.177E-01
-20.394  0.177E-01
-20.393  0.177E-01
-20.392  0.177E-01
-20.391  0.177E-01
-20.390  0.177E-01
-20.389  0.177E-01
-20.388  0.177E-01
-20.387  0.176E-01
-20.386  0.176E-01
-20.385  0.176E-01
-20.384  0.176E-01
-20.383  0.176E-01
-20.382  0.176E-01
-20.381  0.176E-01
-20.380  0.176E-01
-20.379  0.176E-01
-20.378  0.176E-01
-20.377  0.176E-01
-20.376  0.176E-01
-20.375  0.176E-01
-20.374  0.176E-01
-20.373  0.176E-01
-20.372  0.176E-01
-20.371  0.176E-01
-20.370  0.176E-01
-20.369  0.176E-01
-20.368  0.176E-01
-20.367  0.175E-01
-20.366  0.175E-01
-20.365  0.175E-01
-20.364  0.175E-01
-20.363  0.175E-01
-20.362  0.175E-01
-20.361  0.175E-01
-20.360  0.175E-01
-20.359  0.175E-01
-20.358  0.175E-01
-20.357  0.175E-01
-20.356  0.175E-01
-20.355  0.175E-01
-20.354  0.175E-01
-20.353  0.175E-01
-20.352  0.175E-01
-20.351  0.175E-01
-20.350  0.175E-01
-20.349  0.175E-01
-20.348  0.175E-01
-20.347  0.174E-01
-20.346  0.174E-01
-20.345  0.174E-01
-20.344  0.174E-01
-20.343  0.174E-01
-20.342  0.174E-01
-20.341  0.174E-01
-20.340  0.174E-01
-20.339  0.174E-01
-20.338  0.174E-01
-20.337  0.174E-01
-20.336  0.174E-01
-20.335  0.174E-01
-20.334  0.174E-01
-20.333  0.174E-01
-20.332  0.174E-01
-20.331  0.174E-01
-20.330  0.174E-01
-20.329  0.174E-01
-20.328  0.173E-01
-20.327  0.173E-01
-20.326  0.173E-01
-20.325  0.173E-01
-20.324  0.173E-01
-20.323  0.173E-01
-20.322  0.173E-01
-20.321  0.173E-01
-20.320  0.173E-01
-20.319  0.173E-01
-20.318  0.173E-01
-20.317  0.173E-01
-20.316  0.173E-01
-20.315  0.173E-01
-20.314  0.173E-01
-20.313  0.173E-01
-20.312  0.173E-01
-20.311  0.172E-01
-20.310  0.172E-01
-20.309  0.172E-01
-20.308  0.172E-01
-20.307  0.172E-01
-20.306  0.172E-01
-20.305  0.172E-01
-20.304  0.172E-01
-20.303  0.172E-01
-20.302  0.172E-01
-20.301  0.172E-01
-20.300  0.172E-01
-20.299  0.172E-01
-20.298  0.172E-01
-20.297  0.172E-01
-20.296  0.172E-01
-20.295  0.171E-01
-20.294  0.171E-01
-20.293  0.171E-01
-20.292  0.171E-01
-20.291  0.171E-01
-20.290  0.171E-01
-20.289  0.171E-01
-20.288  0.171E-01
-20.287  0.171E-01
-20.286  0.171E-01
-20.285  0.171E-01
-20.284  0.171E-01
-20.283  0.171E-01
-20.282  0.171E-01
-20.281  0.171E-01
-20.280  0.171E-01
-20.279  0.171E-01
-20.278  0.170E-01
-20.277  0.170E-01
-20.276  0.170E-01
-20.275  0.170E-01
-20.274  0.170E-01
-20.273  0.170E-01
-20.272  0.170E-01
-20.271  0.170E-01
-20.270  0.170E-01
-20.269  0.170E-01
-20.268  0.170E-01
-20.267  0.170E-01
-20.266  0.170E-01
-20.265  0.170E-01
-20.264  0.170E-01
-20.263  0.170E-01
-20.262  0.170E-01
-20.261  0.170E-01
-20.260  0.170E-01
-20.259  0.170E-01
-20.258  0.169E-01
-20.257  0.169E-01
-20.256  0.169E-01
-20.255  0.169E-01
-20.254  0.169E-01
-20.253  0.169E-01
-20.252  0.169E-01
-20.251  0.169E-01
-20.250  0.169E-01
-20.249  0.169E-01
-20.248  0.169E-01
-20.247  0.169E-01
-20.246  0.169E-01
-20.245  0.169E-01
-20.244  0.169E-01
-20.243  0.169E-01
-20.242  0.169E-01
-20.241  0.169E-01
-20.240  0.169E-01
-20.239  0.169E-01
-20.238  0.169E-01
-20.237  0.169E-01
-20.236  0.169E-01
-20.235  0.169E-01
-20.234  0.169E-01
-20.233  0.169E-01
-20.232  0.169E-01
-20.231  0.169E-01
-20.230  0.169E-01
-20.229  0.169E-01
-20.228  0.169E-01
-20.227  0.169E-01
-20.226  0.169E-01
-20.225  0.169E-01
-20.224  0.169E-01
-20.223  0.169E-01
-20.222  0.169E-01
-20.221  0.169E-01
-20.220  0.169E-01
-20.219  0.169E-01
-20.218  0.169E-01
-20.217  0.169E-01
-20.216  0.169E-01
-20.215  0.169E-01
-20.214  0.169E-01
-20.213  0.169E-01
-20.212  0.168E-01
-20.211  0.168E-01
-20.210  0.168E-01
-20.209  0.168E-01
-20.208  0.168E-01
-20.207  0.168E-01
-20.206  0.168E-01
-20.205  0.168E-01
-20.204  0.168E-01
-20.203  0.168E-01
-20.202  0.168E-01
-20.201  0.168E-01
-20.200  0.168E-01
-20.199  0.168E-01
-20.198  0.168E-01
-20.197  0.168E-01
-20.196  0.168E-01
-20.195  0.169E-01
-20.194  0.169E-01
-20.193  0.169E-01
-20.192  0.169E-01
-20.191  0.169E-01
-20.190  0.169E-01
-20.189  0.169E-01
-20.188  0.169E-01
-20.187  0.169E-01
-20.186  0.169E-01
-20.185  0.169E-01
-20.184  0.169E-01
-20.183  0.169E-01
-20.182  0.169E-01
-20.181  0.169E-01
-20.180  0.169E-01
-20.179  0.169E-01
-20.178  0.169E-01
-20.177  0.169E-01
-20.176  0.169E-01
-20.175  0.169E-01
-20.174  0.169E-01
-20.173  0.169E-01
-20.172  0.169E-01
-20.171  0.169E-01
-20.170  0.169E-01
-20.169  0.169E-01
-20.168  0.169E-01
-20.167  0.169E-01
-20.166  0.169E-01
-20.165  0.169E-01
-20.164  0.169E-01
-20.163  0.169E-01
-20.162  0.169E-01
-20.161  0.169E-01
-20.160  0.169E-01
-20.159  0.169E-01
-20.158  0.169E-01
-20.157  0.168E-01
-20.156  0.168E-01
-20.155  0.168E-01
-20.154  0.168E-01
-20.153  0.168E-01
-20.152  0.168E-01
-20.151  0.168E-01
-20.150  0.168E-01
-20.149  0.168E-01
-20.148  0.168E-01
-20.147  0.168E-01
-20.146  0.168E-01
-20.145  0.168E-01
-20.144  0.168E-01
-20.143  0.168E-01
-20.142  0.168E-01
-20.141  0.168E-01
-20.140  0.168E-01
-20.139  0.168E-01
-20.138  0.168E-01
-20.137  0.168E-01
-20.136  0.168E-01
-20.135  0.168E-01
-20.134  0.168E-01
-20.133  0.168E-01
-20.132  0.168E-01
-20.131  0.168E-01
-20.130  0.168E-01
-20.129  0.168E-01
-20.128  0.168E-01
-20.127  0.168E-01
-20.126  0.168E-01
-20.125  0.168E-01
-20.124  0.168E-01
-20.123  0.168E-01
-20.122  0.168E-01
-20.121  0.168E-01
-20.120  0.168E-01
-20.119  0.168E-01
-20.118  0.168E-01
-20.117  0.168E-01
-20.116  0.168E-01
-20.115  0.168E-01
-20.114  0.168E-01
-20.113  0.168E-01
-20.112  0.168E-01
-20.111  0.168E-01
-20.110  0.168E-01
-20.109  0.168E-01
-20.108  0.168E-01
-20.107  0.168E-01
-20.106  0.167E-01
-20.105  0.167E-01
-20.104  0.167E-01
-20.103  0.167E-01
-20.102  0.167E-01
-20.101  0.167E-01
-20.100  0.167E-01
-20.099  0.167E-01
-20.098  0.167E-01
-20.097  0.167E-01
-20.096  0.167E-01
-20.095  0.167E-01
-20.094  0.167E-01
-20.093  0.167E-01
-20.092  0.167E-01
-20.091  0.167E-01
-20.090  0.167E-01
-20.089  0.167E-01
-20.088  0.167E-01
-20.087  0.167E-01
-20.086  0.167E-01
-20.085  0.167E-01
-20.084  0.167E-01
-20.083  0.167E-01
-20.082  0.167E-01
-20.081  0.167E-01
-20.080  0.167E-01
-20.079  0.167E-01
-20.078  0.167E-01
-20.077  0.167E-01
-20.076  0.167E-01
-20.075  0.167E-01
-20.074  0.167E-01
-20.073  0.167E-01
-20.072  0.167E-01
-20.071  0.167E-01
-20.070  0.167E-01
-20.069  0.167E-01
-20.068  0.166E-01
-20.067  0.166E-01
-20.066  0.166E-01
-20.065  0.166E-01
-20.064  0.166E-01
-20.063  0.166E-01
-20.062  0.166E-01
-20.061  0.166E-01
-20.060  0.166E-01
-20.059  0.166E-01
-20.058  0.166E-01
-20.057  0.166E-01
-20.056  0.166E-01
-20.055  0.166E-01
-20.054  0.166E-01
-20.053  0.166E-01
-20.052  0.166E-01
-20.051  0.166E-01
-20.050  0.166E-01
-20.049  0.166E-01
-20.048  0.166E-01
-20.047  0.166E-01
-20.046  0.166E-01
-20.045  0.166E-01
-20.044  0.166E-01
-20.043  0.166E-01
-20.042  0.166E-01
-20.041  0.166E-01
-20.040  0.166E-01
-20.039  0.166E-01
-20.038  0.166E-01
-20.037  0.166E-01
-20.036  0.166E-01
-20.035  0.166E-01
-20.034  0.166E-01
-20.033  0.166E-01
-20.032  0.165E-01
-20.031  0.165E-01
-20.030  0.165E-01
-20.029  0.165E-01
-20.028  0.165E-01
-20.027  0.165E-01
-20.026  0.165E-01
-20.025  0.165E-01
-20.024  0.165E-01
-20.023  0.165E-01
-20.022  0.165E-01
-20.021  0.165E-01
-20.020  0.165E-01
-20.019  0.165E-01
-20.018  0.165E-01
-20.017  0.165E-01
-20.016  0.165E-01
-20.015  0.165E-01
-20.014  0.165E-01
-20.013  0.165E-01
-20.012  0.165E-01
-20.011  0.165E-01
-20.010  0.165E-01
-20.009  0.165E-01
-20.008  0.165E-01
-20.007  0.165E-01
-20.006  0.165E-01
-20.005  0.165E-01
-20.004  0.165E-01
-20.003  0.165E-01
-20.002  0.165E-01
-20.001  0.165E-01
-20.000  0.165E-01
-19.999  0.165E-01
-19.998  0.165E-01
-19.997  0.165E-01
-19.996  0.165E-01
-19.995  0.165E-01
-19.994  0.165E-01
-19.993  0.165E-01
-19.992  0.165E-01
-19.991  0.165E-01
-19.990  0.165E-01
-19.989  0.165E-01
-19.988  0.165E-01
-19.987  0.164E-01
-19.986  0.164E-01
-19.985  0.164E-01
-19.984  0.164E-01
-19.983  0.164E-01
-19.982  0.164E-01
-19.981  0.164E-01
-19.980  0.164E-01
-19.979  0.164E-01
-19.978  0.164E-01
-19.977  0.164E-01
-19.976  0.164E-01
-19.975  0.164E-01
-19.974  0.164E-01
-19.973  0.164E-01
-19.972  0.164E-01
-19.971  0.164E-01
-19.970  0.164E-01
-19.969  0.164E-01
-19.968  0.164E-01
-19.967  0.164E-01
-19.966  0.164E-01