-21.543 1.39291e-06 5.43097773e-08 6.6942e-07 6.6937e-07
-21.542 1.5339e-06 5.95577906e-08 7.3714e-07 7.3715e-07
-21.541 1.68865e-06 6.53773346e-08 8.1145e-07 8.1144e-07
-21.54 1.85774e-06 7.15847589e-08 8.9299e-07 8.9304e-07
-21.539 2.04265e-06 7.84830492e-08 9.822e-07 9.8221e-07
-21.538 2.246e-06 8.58908865e-08 1.07999e-06 1.08009e-06
-21.537 2.4663e-06 9.3988961e-08 1.18694e-06 1.18705e-06
-21.536 2.7107e-06 1.029268087e-07 1.30403e-06 1.30406e-06
-21.535 2.9766e-06 1.125693212e-07 1.43215e-06 1.43211e-06
-21.534 3.266e-06 1.227556875e-07 1.57219e-06 1.57215e-06
-21.533 3.5833e-06 1.346250143e-07 1.72504e-06 1.72514e-06
-21.532 3.9339e-06 1.465950375e-07 1.89224e-06 1.89253e-06
-21.531 4.3137e-06 1.60731537e-07 2.07443e-06 2.07383e-06
-21.53 4.7236e-06 1.75081621e-07 2.27392e-06 2.27284e-06
-21.529 5.1733e-06 1.90698724e-07 2.4914e-06 2.4927e-06
-21.528 5.6666e-06 2.08513383e-07 2.7275e-06 2.7288e-06
-21.527 6.201e-06 2.27518871e-07 2.9873e-06 2.9877e-06
-21.526 6.785e-06 2.47770721e-07 3.2687e-06 3.2682e-06
-21.525 7.4198e-06 2.6936318e-07 3.5757e-06 3.5752e-06
-21.524 8.1138e-06 2.93183438e-07 3.9099e-06 3.9106e-06
-21.523 8.8633e-06 3.19395568e-07 4.2731e-06 4.2727e-06
-21.522 9.6823e-06 3.479178e-07 4.6683e-06 4.6678e-06
-21.521 1.05753e-05 3.7780222e-07 5.0991e-06 5.0995e-06
-21.52 1.15438e-05 4.11123522e-07 5.5663e-06 5.5665e-06
-21.519 1.2595e-05 4.45843239e-07 6.0755e-06 6.0741e-06
-21.518 1.3736e-05 4.85038404e-07 6.626e-06 6.6263e-06
-21.517 1.4977e-05 5.26737584e-07 7.2247e-06 7.2255e-06
-21.516 1.63233e-05 5.70911065e-07 7.8759e-06 7.876e-06
-21.515 1.7782e-05 6.1975508e-07 8.5817e-06 8.581e-06
-21.514 1.93626e-05 6.72252016e-07 9.3454e-06 9.3463e-06
-21.513 2.10783e-05 7.28328683e-07 1.01745e-05 1.01763e-05
-21.512 2.2928e-05 7.8915787e-07 1.10733e-05 1.10727e-05
-21.511 2.4945e-05 8.54752365e-07 1.20461e-05 1.20458e-05
-21.51 2.7126e-05 9.25216679e-07 1.30997e-05 1.30987e-05
-21.509 2.9475e-05 1.001370592e-06 1.42405e-05 1.42384e-05
-21.508 3.2049e-05 1.082538777e-06 1.5472e-05 1.54726e-05
-21.507 3.4773e-05 1.170859174e-06 1.68053e-05 1.68054e-05
-21.506 3.7751e-05 1.264110526e-06 1.82453e-05 1.82465e-05
-21.505 4.0971e-05 1.370972683e-06 1.98025e-05 1.98015e-05
-21.504 4.4446e-05 1.478541525e-06 2.14753e-05 2.14842e-05
-21.503 4.8191e-05 1.5974258e-06 2.32967e-05 2.33047e-05
-21.502 5.2219e-05 1.71752545e-06 2.5256e-05 2.5256e-05
-21.501 5.6608e-05 1.85969713e-06 2.7373e-05 2.737e-05
-21.5 6.1292e-05 2.0031923e-06 2.9636e-05 2.9638e-05
-21.499 6.635e-05 2.1582393e-06 3.2106e-05 3.2098e-05
-21.498 7.1807e-05 2.32506789e-06 3.4739e-05 3.4748e-05
-21.497 7.7672e-05 2.50441144e-06 3.7592e-05 3.7585e-05
-21.496 8.3982e-05 2.69515168e-06 4.0653e-05 4.0656e-05
-21.495 9.0811e-05 2.89867688e-06 4.3954e-05 4.3952e-05
-21.494 9.8124e-05 3.11375907e-06 4.749e-05 4.7503e-05
-21.493 0.000105963 3.35201845e-06 5.1323e-05 5.1311e-05
-21.492 0.000114409 3.60276122e-06 5.5414e-05 5.5404e-05
-21.491 0.000123472 3.86582021e-06 5.982e-05 5.9813e-05
-21.49 0.00013323 4.15245142e-06 6.4542e-05 6.4542e-05
-21.489 0.000143675 4.46173569e-06 6.9618e-05 6.9613e-05
-21.488 0.00015492 4.78465654e-06 7.5063e-05 7.5061e-05
-21.487 0.00016693 5.13079051e-06 8.0893e-05 8.0898e-05
-21.486 0.000179837 5.5012494e-06 8.7155e-05 8.7157e-05
-21.485 0.000193631 5.89526484e-06 9.3862e-05 9.3866e-05
-21.484 0.000208616 6.31336253e-06 0.000101052 0.000101051
-21.483 0.00022433 6.75619567e-06 0.00010874 0.000108758
-21.482 0.00024116 7.23382162e-06 0.000116984 0.000116984
-21.481 0.00025945 7.74583802e-06 0.000125786 0.000125795
-21.48 0.00027858 8.28398373e-06 0.000135217 0.000135221
-21.479 0.00029944 8.8566349e-06 0.000145287 0.000145307
-21.478 0.00032156 9.46603093e-06 0.00015606 0.000156062
-21.477 0.00034517 1.011060305e-05 0.000167561 0.000167567
-21.476 0.00037049 1.079379376e-05 0.00017984 0.000179839
-21.475 0.00039737 1.152093533e-05 0.000192943 0.000192936
-21.474 0.00042607 1.229635742e-05 0.000207055 0.000206965
-21.473 0.00045681 1.313211267e-05 0.000221822 0.000221793
-21.472 0.0004896 1.397293404e-05 0.000237737 0.000237707
-21.471 0.00052403 1.49220745e-05 0.00025476 0.00025471
-21.47 0.00056133 1.58851535e-05 0.00027259 0.00027262
-21.469 0.00060082 1.68476545e-05 0.00029181 0.000292
-21.468 0.00064289 1.80292311e-05 0.00031251 0.00031234
-21.467 0.00068753 1.9114666e-05 0.0003342 0.00033413
-21.466 0.00073476 2.03164312e-05 0.00035729 0.00035733
-21.465 0.00078547 2.162003e-05 0.00038184 0.000382
-21.464 0.00083915 2.29458721e-05 0.00040801 0.00040808
-21.463 0.00089608 2.43842758e-05 0.00043588 0.00043585
-21.462 0.00095661 2.59265758e-05 0.00046526 0.00046534
-21.461 0.0010208 2.74872814e-05 0.00049661 0.00049664
-21.46 0.00108897 2.92652189e-05 0.00052983 0.00052997
-21.459 0.00116117 3.09572074e-05 0.00056502 0.00056501
-21.458 0.00123758 3.28631568e-05 0.00060242 0.00060246
-21.457 0.00131893 3.47871398e-05 0.00064197 0.00064193
-21.456 0.00140472 3.69261531e-05 0.00068381 0.00068388
-21.455 0.00149564 3.90805473e-05 0.0007284 0.0007283
-21.454 0.00159176 4.13604134e-05 0.00077517 0.00077516
-21.453 0.00169356 4.37518208e-05 0.00082502 0.00082498
-21.452 0.00180141 4.62655314e-05 0.00087752 0.0008775
-21.451 0.00191529 4.89002046e-05 0.00093312 0.0009331
-21.45 0.00203501 5.17637987e-05 0.00099182 0.00099177
-21.449 0.0021628 5.46422284e-05 0.00105394 0.0010539
-21.448 0.0022974 5.7749439e-05 0.0011195 0.00111945
-21.447 0.0024383 6.08765168e-05 0.00118869 0.0011886
-21.446 0.0025871 6.43318418e-05 0.00126162 0.00126157
-21.445 0.0027447 6.78198951e-05 0.00133847 0.00133864
-21.444 0.002911 7.15271519e-05 0.00141969 0.00141969
-21.443 0.0030859 7.53572008e-05 0.00150519 0.00150518
-21.442 0.0032697 7.94297992e-05 0.00159543 0.00159531
-21.441 0.0034631 8.36228749e-05 0.00169017 0.00169025
-21.44 0.0036684 8.80562669e-05 0.00179022 0.00179012
-21.439 0.0038836 9.27158815e-05 0.00189513 0.00189551
-21.438 0.0041085 9.75252037e-05 0.00200606 0.00200664
-21.437 0.0043485 0.0001025508409 0.00212331 0.00212204
-21.436 0.0045962 0.000107826327 0.00224364 0.00224466
-21.435 0.004859 0.0001132203514 0.00237267 0.00237357
-21.434 0.0051351 0.0001189848251 0.0025071 0.0025065
-21.433 0.005424 0.0001245657744 0.0026495 0.0026487
-21.432 0.0057263 0.0001316065413 0.002798 0.0027975
-21.431 0.0060459 0.0001376838518 0.0029533 0.0029535
-21.43 0.0063792 0.0001447891129 0.0031172 0.0031174
-21.429 0.0067262 0.000150898727 0.0032887 0.0032892
-21.428 0.0070924 0.000158146592 0.0034687 0.0034677
-21.427 0.0074765 0.00016641406 0.0036557 0.003656
-21.426 0.0078787 0.000173729871 0.0038537 0.0038529
-21.425 0.0083003 0.000182069602 0.0040592 0.0040596
-21.424 0.0087398 0.000190454693 0.0042741 0.0042749
-21.423 0.0091965 0.00019893275 0.0044991 0.0044999
-21.422 0.0096784 0.000208453647 0.004736 0.0047359
-21.421 0.0101825 0.000218000334 0.0049814 0.0049816
-21.42 0.0107071 0.000227665827 0.0052395 0.0052384
-21.419 0.0112539 0.00023738507 0.0055079 0.0055091
-21.418 0.0118274 0.000248146169 0.00579 0.0057894
-21.417 0.0124206 0.000258911025 0.0060819 0.0060809
-21.416 0.0130419 0.000269823117 0.0063878 0.0063869
-21.415 0.0136934 0.000281725352 0.0067046 0.0067052
-21.414 0.0143672 0.00029379113 0.0070363 0.0070366
-21.413 0.0150704 0.000305808848 0.0073821 0.0073832
-21.412 0.0158043 0.000318978669 0.0077428 0.0077435
-21.411 0.016566 0.000332179576 0.0081171 0.0081172
-21.41 0.0173618 0.0003455126 0.0085082 0.0085083
-21.409 0.0181893 0.000359816013 0.0089138 0.0089144
-21.408 0.0190453 0.000374275906 0.0093359 0.0093359
-21.407 0.0199392 0.000388811162 0.0097758 0.0097748
-21.406 0.020864 0.000404407271 0.0102309 0.0102314
-21.405 0.021834 0.000420056503 0.0107055 0.0107052
-21.404 0.022831 0.000436778951 0.0111978 0.0111968
-21.403 0.023884 0.000453637059 0.0117081 0.0117081
-21.402 0.024948 0.000470489623 0.0122386 0.0122376
-21.401 0.026072 0.000488528667 0.0127892 0.0127878
-21.4 0.027217 0.000506636144 0.0133585 0.0133588
-21.399 0.028415 0.0005247785 0.0139503 0.0139509
-21.398 0.029693 0.000544070843 0.0145615 0.014563
-21.397 0.030964 0.000563359305 0.0151971 0.015197
-21.396 0.032306 0.000583788677 0.015854 0.0158542
-21.395 0.033662 0.000604324885 0.0165339 0.016534
-21.394 0.035091 0.000625970803 0.0172376 0.0172382
-21.393 0.036571 0.00064763728 0.0179654 0.0179658
-21.392 0.038113 0.000669463747 0.0187184 0.0187178
-21.391 0.03969 0.000692315847 0.0195012 0.0194863
-21.39 0.041314 0.000715199825 0.0202968 0.0203067
-21.389 0.043018 0.000739248266 0.021129 0.0211323
-21.388 0.04473 0.00076346273 0.0219805 0.0219773
-21.387 0.046525 0.000787682504 0.0228715 0.0228691
-21.386 0.048372 0.000813083478 0.023784 0.023787
-21.385 0.050282 0.000838579685 0.024723 0.024721
-21.384 0.052272 0.000864983842 0.025691 0.025695
-21.383 0.054299 0.000891693172 0.026691 0.0267
-21.382 0.056372 0.000919315292 0.027733 0.027729
-21.381 0.058531 0.000947299815 0.028791 0.028778
-21.38 0.060738 0.000975033658 0.029877 0.02988
-21.379 0.063021 0.001003984471 0.031012 0.031013
-21.378 0.06536 0.001033168707 0.032171 0.032174
-21.377 0.067791 0.001063513363 0.033363 0.033359
-21.376 0.070246 0.001093587422 0.034575 0.034568
-21.375 0.072806 0.001124031501 0.035846 0.035838
-21.374 0.075433 0.00115561082 0.037133 0.037135
-21.373 0.07811 0.001187130442 0.038478 0.038458
-21.372 0.080885 0.001217773364 0.03983 0.039821
-21.371 0.083708 0.001253591619 0.041229 0.041217
-21.37 0.086615 0.001289371944 0.042661 0.042664
-21.369 0.08958 0.001315389672 0.044144 0.044142
-21.368 0.092653 0.00135092023 0.045657 0.045651
-21.367 0.095781 0.0013870778 0.047205 0.0472
-21.366 0.099015 0.00142367061 0.048784 0.048788
-21.365 0.102296 0.00145988728 0.05042 0.050415
-21.364 0.105665 0.00149592605 0.052082 0.052089
-21.363 0.109131 0.00153213142 0.053796 0.053797
-21.362 0.112621 0.00156896546 0.055537 0.055541
-21.361 0.11625 0.00160558243 0.057336 0.057327
-21.36 0.119938 0.00164224563 0.059151 0.059152
-21.359 0.123715 0.0016787378 0.061014 0.061027
-21.358 0.127579 0.00171575767 0.062932 0.062939
-21.357 0.131504 0.00175273587 0.064877 0.064887
-21.356 0.135543 0.00178944527 0.066875 0.066881
-21.355 0.139685 0.00182658754 0.068917 0.068917
-21.354 0.14386 0.00186332454 0.070997 0.070991
-21.353 0.148152 0.00191034627 0.073118 0.073113
-21.352 0.152502 0.00194784177 0.075282 0.075293
-21.351 0.156969 0.00198478397 0.077499 0.077491
-21.35 0.161515 0.00202184867 0.079744 0.079753
-21.349 0.166137 0.00206928047 0.082049 0.082045
-21.348 0.170864 0.0021062198 0.084381 0.084394
-21.347 0.175664 0.00214376263 0.086759 0.086765
-21.346 0.180572 0.00218155003 0.089188 0.089192
-21.345 0.185552 0.00222917906 0.091655 0.091659
-21.344 0.19062 0.00226638169 0.094185 0.094185
-21.343 0.195779 0.00230373565 0.096744 0.096736
-21.342 0.201056 0.00234123775 0.099353 0.099348
-21.341 0.20652 0.00238916891 0.101994 0.101994
-21.34 0.21174 0.00242680804 0.104691 0.104679
-21.339 0.21723 0.00246414877 0.107431 0.107434
-21.338 0.22298 0.0025117205 0.110202 0.110213
-21.337 0.22859 0.00254937556 0.113029 0.113039
-21.336 0.23456 0.00258768382 0.115896 0.115905
-21.335 0.24044 0.00262487695 0.118824 0.118818
-21.334 0.24629 0.00266261331 0.121775 0.121773
-21.333 0.25238 0.00270992434 0.124769 0.124775
-21.332 0.25853 0.0027476553 0.127822 0.127825
-21.331 0.26468 0.00278529876 0.1309 0.130906
-21.33 0.27104 0.00282347765 0.134037 0.134035
-21.329 0.27729 0.00286110188 0.137204 0.137211
-21.328 0.2838 0.00289883074 0.140417 0.140423
-21.327 0.29037 0.0029464348 0.143681 0.14369
-21.326 0.29698 0.00298399596 0.146973 0.14698
-21.325 0.30352 0.00302132232 0.150324 0.150331
-21.324 0.31031 0.00305899568 0.153706 0.153711
-21.323 0.31748 0.00309655047 0.157133 0.157139
-21.322 0.32421 0.00313398983 0.160592 0.160602
-21.321 0.33141 0.00317154049 0.164099 0.164105
-21.32 0.33847 0.00319930115 0.167643 0.167652
-21.319 0.34571 0.00323648391 0.171229 0.17123
-21.318 0.35305 0.0032739388 0.174853 0.174855
-21.317 0.3604 0.00331139973 0.178522 0.178522
-21.316 0.36749 0.00334890922 0.182229 0.18222
-21.315 0.3753 0.00337635898 0.185953 0.185952
-21.314 0.38296 0.00341283347 0.189754 0.189727
-21.313 0.39071 0.00345031093 0.193609 0.193517
-21.312 0.39831 0.00347772802 0.197422 0.197347
-21.311 0.40606 0.00351442325 0.201317 0.201251
-21.31 0.41406 0.00354151214 0.205226 0.205199
-21.309 0.42187 0.0035789298 0.2092 0.209071
-21.308 0.42987 0.00360527559 0.213163 0.213147
-21.307 0.43789 0.00364226905 0.217206 0.217166
-21.306 0.44603 0.00366894478 0.221215 0.221175
-21.305 0.45426 0.00369595857 0.22536 0.22529
-21.304 0.46265 0.00372227073 0.22937 0.22938
-21.303 0.47097 0.00375923122 0.23359 0.23358
-21.302 0.47909 0.00378545065 0.23777 0.23776
-21.301 0.48747 0.00381175081 0.24202 0.24197
-21.3 0.49634 0.0038380753 0.2462 0.24615
-21.299 0.50487 0.00386487546 0.25048 0.25039
-21.298 0.51335 0.00389107089 0.25479 0.2548
-21.297 0.52218 0.00391697415 0.2592 0.25917
-21.296 0.53084 0.00393283364 0.26344 0.26344
-21.295 0.53967 0.0039588889 0.26782 0.26771
-21.294 0.54835 0.00398502463 0.27227 0.27229
-21.293 0.55728 0.00400087719 0.27664 0.27666
-21.292 0.56621 0.00402654305 0.28114 0.28102
-21.291 0.57519 0.00405262658 0.28563 0.28575
-21.29 0.58439 0.00406836384 0.29003 0.29018
-21.289 0.59322 0.00409378473 0.29447 0.2945
-21.288 0.60245 0.00410883896 0.2992 0.29927
-21.287 0.61171 0.00412487019 0.30377 0.30371
-21.286 0.62072 0.00415008672 0.30826 0.30823
-21.285 0.63007 0.00416478868 0.31292 0.31292
-21.284 0.6392 0.00418064094 0.3175 0.3175
-21.283 0.6487 0.00419505757 0.32227 0.32217
-21.282 0.65802 0.00421013103 0.3269 0.32689
-21.281 0.66742 0.00423561056 0.33154 0.33163
-21.28 0.67682 0.00425067409 0.33628 0.33622
-21.279 0.68617 0.00425503372 0.34105 0.34098
-21.278 0.69578 0.00426934368 0.34573 0.34575
-21.277 0.70531 0.00428409928 0.35047 0.35042
-21.276 0.71468 0.00429934724 0.35526 0.35525
-21.275 0.72444 0.00431336887 0.36003 0.35994
-21.274 0.73388 0.0043276145 0.36481 0.36483
-21.273 0.74353 0.00433199183 0.3697 0.36966
-21.272 0.75317 0.00434686243 0.3745 0.37435
-21.271 0.76284 0.00436121336 0.3792 0.37946
-21.27 0.77258 0.00436528109 0.38407 0.38409
-21.269 0.78231 0.00437970142 0.38903 0.38894
-21.268 0.79214 0.00438354172 0.3938 0.39383
-21.267 0.80187 0.00439743605 0.39872 0.39878
-21.266 0.81166 0.00440132105 0.40365 0.40351
-21.265 0.82137 0.00440497488 0.40852 0.40847
-21.264 0.83116 0.00441877156 0.41341 0.41339
-21.263 0.84122 0.00442247875 0.41831 0.41842
-21.262 0.85084 0.00442620007 0.42322 0.42321
-21.261 0.86075 0.00444002396 0.42809 0.4282
-21.26 0.8706 0.00444341985 0.43303 0.43319
-21.259 0.88081 0.00444741684 0.43809 0.43804
-21.258 0.89045 0.00445023873 0.44316 0.44302
-21.257 0.90042 0.00445388502 0.4479 0.44793
-21.256 0.91046 0.00445770594 0.45292 0.45291
-21.255 0.9204 0.00446053023 0.45785 0.45783
-21.254 0.93019 0.00446374482 0.46293 0.46292
-21.253 0.94019 0.00446702611 0.46782 0.46781
-21.252 0.95007 0.004470271 0.47283 0.4728
-21.251 0.96019 0.00447302299 0.47778 0.47776
-21.25 0.96998 0.00447672088 0.48276 0.48267
-21.249 0.98008 0.00447946717 0.48777 0.48782
-21.248 0.99007 0.00448263616 0.49276 0.49267
-21.247 1.00001 0.00448533535 0.4978 0.49777
-21.246 1.00992 0.00448811284 0.50274 0.50282
-21.245 1.01998 0.00448187763 0.50776 0.50758
-21.244 1.02998 0.00448421082 0.51278 0.5129
-21.243 1.0401 0.00448736391 0.51778 0.51772
-21.242 1.04994 0.0044903931 0.52282 0.52265
-21.241 1.0598 0.00449245359 0.52778 0.52788
-21.24 1.07009 0.00448488608 0.53281 0.53273
-21.239 1.07995 0.00448836857 0.53775 0.53784
-21.238 1.09021 0.00449084303 0.54283 0.54277
-21.237 1.10003 0.00448303852 0.54784 0.54778
-21.236 1.11006 0.00448639141 0.55281 0.55275
-21.235 1.11999 0.0044885665 0.55778 0.55782
-21.234 1.13011 0.00448104099 0.56281 0.56283
-21.233 1.14011 0.00448312188 0.56783 0.56775
-21.232 1.15005 0.00448634034 0.57269 0.57278
-21.231 1.15998 0.00447901613 0.57782 0.5778
-21.23 1.16997 0.00448151432 0.58275 0.58276
-21.229 1.18007 0.00448356851 0.58786 0.58779
-21.228 1.18997 0.00447600967 0.5928 0.59274
-21.227 1.20002 0.00447808186 0.59777 0.59774
-21.226 1.20996 0.00447166935 0.60268 0.60275
-21.225 1.21986 0.00447412881 0.60761 0.60769
-21.224 1.22986 0.0044761733 0.6127 0.61263
-21.223 1.23986 0.00446861749 0.6176 0.61766
-21.222 1.24982 0.00447074665 0.62259 0.62265
-21.221 1.25975 0.00446312484 0.62765 0.62761
-21.22 1.26957 0.00446523273 0.63246 0.63259
-21.219 1.27947 0.00445848419 0.63757 0.63762
-21.218 1.28949 0.00446072738 0.64242 0.64246
-21.217 1.29937 0.00446277824 0.64748 0.64751
-21.216 1.30939 0.00445497343 0.65236 0.6524
-21.215 1.31932 0.00445727719 0.65735 0.65738
-21.214 1.32908 0.00444933438 0.66229 0.66232
-21.213 1.33898 0.00445133157 0.66721 0.66726
-21.212 1.34894 0.00444433643 0.67217 0.67217
-21.211 1.35866 0.00444671992 0.67716 0.67709
-21.21 1.36844 0.00443872578 0.68195 0.68201
-21.209 1.37826 0.00444106797 0.687 0.68698
-21.208 1.38831 0.00444314913 0.69185 0.69177
-21.207 1.39794 0.00443511902 0.6968 0.6968
-21.206 1.40784 0.00443752418 0.70175 0.70164
-21.205 1.41774 0.00443011207 0.70658 0.70669
-21.204 1.42747 0.00443205253 0.71161 0.71145
-21.203 1.43743 0.00442505169 0.71643 0.71645
-21.202 1.44715 0.00442708458 0.72134 0.72121
-21.201 1.45681 0.00442910574 0.72623 0.72625
-21.2 1.46662 0.00442120663 0.73098 0.73101
-21.199 1.4763 0.00442354579 0.73594 0.73597
-21.198 1.48592 0.00441496698 0.74082 0.74081
-21.197 1.49585 0.00441875484 0.74575 0.74567
-21.196 1.50556 0.00442023 0.75052 0.75051
-21.195 1.51519 0.00441395789 0.7554 0.75541
-21.194 1.52478 0.00441542945 0.76011 0.76027
-21.193 1.53449 0.00440630431 0.76513 0.76501
-21.192 1.54415 0.0044110675 0.76985 0.76995
-21.191 1.55377 0.00441177766 0.77474 0.7747
-21.19 1.5636 0.00440554755 0.7796 0.7795
-21.189 1.57314 0.00440642571 0.78452 0.78439
-21.188 1.58306 0.00440750957 0.78914 0.78929
-21.187 1.59245 0.00440197876 0.79411 0.79404
-21.186 1.60207 0.00440273362 0.79885 0.79885
-21.185 1.6116 0.00440705578 0.80364 0.80368
-21.184 1.62126 0.00439829067 0.80845 0.80839
-21.183 1.63097 0.00439907283 0.81323 0.81321
-21.182 1.64043 0.00440355939 0.81799 0.81797
-21.181 1.64982 0.00439438625 0.82276 0.82282
-21.18 1.65944 0.00439844114 0.82762 0.82767
-21.179 1.66916 0.004399196 0.83232 0.83226
-21.178 1.67875 0.00439067116 0.83719 0.83708
-21.177 1.68815 0.00439442005 0.84177 0.84181
-21.176 1.69781 0.00439550221 0.84671 0.84654
-21.175 1.70704 0.00438994407 0.85138 0.85142
-21.174 1.71669 0.00439142463 0.85607 0.85601
-21.173 1.72616 0.00439211552 0.86075 0.86077
-21.172 1.73542 0.00438597568 0.86554 0.86563
-21.171 1.74477 0.00438715354 0.87019 0.87025
-21.17 1.75451 0.0043914724 0.87503 0.87508
-21.169 1.76383 0.00439235659 0.87965 0.87971
-21.168 1.77302 0.00438612345 0.88445 0.88445
-21.167 1.78271 0.00438717561 0.88914 0.88909
-21.166 1.79209 0.00438867987 0.89379 0.89381
-21.165 1.8015 0.00438241703 0.89853 0.89851
-21.164 1.81076 0.00438390062 0.90327 0.90326
-21.163 1.81995 0.00438768578 0.90782 0.90781
-21.162 1.82958 0.00438920564 0.91271 0.91252
-21.161 1.83892 0.0043801678 0.91719 0.91729
-21.16 1.84806 0.00438425866 0.92184 0.92192
-21.159 1.85747 0.00438561625 0.92655 0.92662
-21.158 1.86666 0.00438968581 0.93119 0.93121
-21.157 1.87607 0.00438056697 0.93588 0.93585
-21.156 1.88542 0.00438132783 0.94049 0.94054
-21.155 1.8945 0.00438573099 0.94512 0.94495
-21.154 1.90396 0.00438668085 0.94971 0.94975
-21.153 1.91307 0.00438076571 0.95443 0.95446
-21.152 1.9223 0.0043826636 0.95897 0.95893
-21.151 1.93157 0.00438640616 0.96366 0.96366
-21.15 1.94095 0.00438756002 0.96825 0.96821
-21.149 1.95019 0.00437837218 0.97267 0.9728
-21.148 1.95894 0.00438269374 0.97741 0.97745
-21.147 1.96764 0.0043834819 0.98203 0.98198
-21.146 1.97724 0.00438732076 0.98656 0.98646
-21.145 1.98644 0.00437905392 0.99114 0.99123
-21.144 1.99634 0.00437982378 0.99576 0.99574
-21.143 2.00517 0.00438366564 1.00024 1.0002
-21.142 2.01574 0.0043850385 1.00473 1.00485
-21.141 2.02211 0.00438946866 1.00946 1.00953
-21.14 2.0321 0.00438016052 1.014 1.01396
-21.139 2.04117 0.00438113408 1.01848 1.01849
-21.138 2.04955 0.00438605024 1.02319 1.02305
-21.137 2.05999 0.0043871591 1.02763 1.02763
-21.136 2.06862 0.00438095026 1.03211 1.03217
-21.135 2.07792 0.00438235282 1.03659 1.03672
-21.134 2.08569 0.00438338098 1.04123 1.04116
-21.133 2.09564 0.00438726184 1.04569 1.04563
-21.132 2.10398 0.004378719 1.05028 1.05025
-21.131 2.1138 0.00438245256 1.05474 1.05475
-21.13 2.12368 0.00438354042 1.05925 1.05927
-21.129 2.13217 0.00438438858 1.06373 1.06364
-21.128 2.14107 0.00437881811 1.06827 1.06824
-21.127 2.15154 0.00437985527 1.07264 1.07277
-21.126 2.1588 0.00438364013 1.07705 1.07713
-21.125 2.1677 0.00438508709 1.08168 1.08158
-21.124 2.1758 0.00438586985 1.08617 1.08624
-21.123 2.1858 0.00437999791 1.09063 1.09062
-21.122 2.1943 0.00438102127 1.09498 1.09514
-21.121 2.203 0.004385476 1.09944 1.09945
-21.12 2.2127 0.00438658936 1.10398 1.10397
-21.119 2.2221 0.00437734542 1.10847 1.10831
-21.118 2.2305 0.00438107748 1.11275 1.11284
-21.117 2.2378 0.00438287151 1.11726 1.11731
-21.116 2.2478 0.00437667557 1.12169 1.12176
-21.115 2.2551 0.00437796563 1.12622 1.12601
-21.114 2.2662 0.00437969969 1.13054 1.13054
-21.113 2.2723 0.00438349502 1.13494 1.13503
-21.112 2.2856 0.00437422678 1.1394 1.13941
-21.111 2.2916 0.00437836684 1.14381 1.14385
-21.11 2.3028 0.00437972317 1.14817 1.14824
-21.109 2.3095 0.00438038893 1.15266 1.15267
-21.108 2.3179 0.00437479029 1.15703 1.15703
-21.107 2.3279 0.00437548302 1.16145 1.16145
-21.106 2.3346 0.00437996208 1.16574 1.16569
-21.105 2.3461 0.00438092041 1.17018 1.17011
-21.104 2.3518 0.00437186517 1.17448 1.17448
-21.103 2.363 0.00437558253 1.17894 1.17898
-21.102 2.3694 0.00437663856 1.18329 1.18333
-21.101 2.3817 0.00436799132 1.18766 1.18764
-21.1 2.3878 0.00437184365 1.19203 1.19199
-21.099 2.399 0.00437302541 1.19639 1.1964
-21.098 2.4041 0.00436668844 1.20078 1.20083
-21.097 2.4156 0.0043683265 1.20506 1.20503
-21.096 2.4226 0.00436957453 1.20944 1.2093
-21.095 2.4313 0.00437329789 1.2139 1.21366
-21.094 2.441 0.00436434762 1.21805 1.21796
-21.093 2.4477 0.00436825368 1.22232 1.22228
-21.092 2.4604 0.00437001471 1.22663 1.22667
-21.091 2.4652 0.00436074377 1.23107 1.23091
-21.09 2.477 0.0043646645 1.23526 1.23525
-21.089 2.4816 0.00436573586 1.23962 1.23969
-21.088 2.4921 0.00435643789 1.24396 1.24395
-21.087 2.5009 0.00436084295 1.24827 1.24832
-21.086 2.51 0.00436196198 1.25264 1.25254
-21.085 2.5182 0.00435567874 1.25694 1.25684
-21.084 2.5269 0.00435680107 1.26122 1.26118
-21.083 2.5351 0.00435758083 1.26546 1.26549
-21.082 2.5436 0.00435192786 1.26972 1.26971
-21.081 2.5529 0.00435304089 1.27398 1.27385
-21.08 2.5604 0.00435376695 1.2783 1.27839
-21.079 2.5699 0.00434785898 1.28245 1.28258
-21.078 2.5783 0.00434867504 1.28669 1.28675
-21.077 2.587 0.00435320507 1.29095 1.29106
-21.076 2.5962 0.0043442881 1.29536 1.29529
-21.075 2.6055 0.00434506816 1.29953 1.29959
-21.074 2.6109 0.00434921389 1.30392 1.30381
-21.073 2.6204 0.00433996425 1.30817 1.30811
-21.072 2.6273 0.00434014398 1.31231 1.31233
-21.071 2.6369 0.00434481001 1.3165 1.3165
-21.07 2.6455 0.00433556607 1.32079 1.32067
-21.069 2.6548 0.0043396041 1.32504 1.32495
-21.068 2.6645 0.00434044713 1.32921 1.32928
-21.067 2.6718 0.00433153019 1.3334 1.33341
-21.066 2.6808 0.00433544492 1.33768 1.33767
-21.065 2.6866 0.00433624628 1.34197 1.34184
-21.064 2.6948 0.00432793831 1.34605 1.34607
-21.063 2.705 0.00433168204 1.35022 1.35023
-21.062 2.7129 0.0043324744 1.35448 1.3544
-21.061 2.7214 0.00432352113 1.35868 1.35863
-21.06 2.7289 0.00432732816 1.36282 1.36291
-21.059 2.7395 0.00432844722 1.367 1.36704
-21.058 2.748 0.00432280925 1.37118 1.37106
-21.057 2.7555 0.00432349028 1.37531 1.37527
-21.056 2.7634 0.00432450734 1.37961 1.37958
-21.055 2.7704 0.00431844307 1.38375 1.38381
-21.054 2.7812 0.00431939843 1.38787 1.38786
-21.053 2.787 0.00432042416 1.39194 1.39202
-21.052 2.7991 0.00431413219 1.39614 1.39626
-21.051 2.8055 0.00431562925 1.40028 1.40037
-21.05 2.8136 0.00431967328 1.40455 1.40456
-21.049 2.8221 0.00431075661 1.40875 1.40862
-21.048 2.8267 0.00431150937 1.4128 1.41274
-21.047 2.8396 0.0043145634 1.417 1.41696
-21.046 2.8451 0.00430580246 1.42116 1.42104
-21.045 2.8554 0.00430655849 1.4252 1.42506
-21.044 2.8635 0.00430084522 1.42934 1.42919
-21.043 2.8699 0.00430199158 1.43348 1.43331
-21.042 2.8799 0.00430273831 1.43765 1.43749
-21.041 2.8871 0.00429659937 1.4418 1.44171
-21.04 2.8965 0.0042977427 1.44587 1.44578
-21.039 2.9047 0.00430143243 1.44983 1.44987
-21.038 2.9134 0.00429258779 1.45389 1.45394
-21.037 2.9198 0.00429398252 1.4581 1.45806
-21.036 2.9283 0.00429784058 1.46218 1.46218
-21.035 2.937 0.00428886961 1.46629 1.46631
-21.034 2.9458 0.00428958964 1.47034 1.47038
-21.033 2.9531 0.0042934357 1.47438 1.47442
-21.032 2.9603 0.00428453773 1.47843 1.47864
-21.031 2.9694 0.00428454679 1.48245 1.48266
-21.03 2.9776 0.00428837182 1.48653 1.48669
-21.029 2.9866 0.00428012088 1.49056 1.49069
-21.028 2.9921 0.00428102661 1.49469 1.49474
-21.027 3.0021 0.00428472894 1.49881 1.49882
-21.026 3.0111 0.0042756677 1.50282 1.50282
-21.025 3.0173 0.00427954403 1.50692 1.50682
-21.024 3.0269 0.00428045909 1.51089 1.51086
-21.023 3.0335 0.00427153282 1.51489 1.51494
-21.022 3.0433 0.00427580818 1.51891 1.51894
-21.021 3.0505 0.00427662991 1.52296 1.52299
-21.02 3.0577 0.00426781497 1.52695 1.52702
-21.019 3.0663 0.0042719133 1.53096 1.53104
-21.018 3.0735 0.00427252803 1.53504 1.53507
-21.017 3.084 0.00426302039 1.53898 1.53907
-21.016 3.0905 0.00426681812 1.54308 1.54306
-21.015 3.098 0.00426763718 1.54706 1.54704
-21.014 3.1064 0.00426218851 1.55107 1.55105
-21.013 3.1129 0.00426316027 1.55512 1.55512
-21.012 3.1237 0.0042638836 1.55898 1.55908
-21.011 3.1306 0.00425778636 1.56301 1.56298
-21.01 3.1374 0.00425877639 1.56695 1.567
-21.009 3.1467 0.00425960475 1.57098 1.57095
-21.008 3.1524 0.00425333348 1.57492 1.57493
-21.007 3.1634 0.00425502554 1.57892 1.57887
-21.006 3.1706 0.00425583257 1.58292 1.58282
-21.005 3.1772 0.00425904863 1.58689 1.58677
-21.004 3.187 0.00424980496 1.59086 1.59076
-21.003 3.193 0.00425367772 1.59472 1.59473
-21.002 3.2032 0.00425455375 1.59865 1.59858
-21.001 3.2103 0.00424540581 1.60257 1.60262
-21.0 3.216 0.00424964184 1.60648 1.60653
-20.999 3.2265 0.00425075217 1.61039 1.61042
-20.998 3.2321 0.00424168793 1.61434 1.6144
-20.997 3.2405 0.00424556696 1.61835 1.6183
-20.996 3.2496 0.00424650032 1.62226 1.62227
-20.995 3.2563 0.00423734605 1.62612 1.6261
-20.994 3.2647 0.00424104541 1.63004 1.63007
-20.993 3.2714 0.00424188544 1.63396 1.63394
-20.992 3.279 0.0042459082 1.6378 1.63779
-20.991 3.2886 0.0042366885 1.64169 1.64175
-20.99 3.2962 0.0042375822 1.64546 1.64565
-20.989 3.3023 0.0042413235 1.64942 1.64958
-20.988 3.3113 0.0042324158 1.65342 1.65339
-20.987 3.3177 0.0042331025 1.65735 1.65727
-20.986 3.3261 0.0042374378 1.66117 1.66116
-20.985 3.3352 0.0042281638 1.66505 1.66505
-20.984 3.3416 0.0042292108 1.6688 1.66887
-20.983 3.35 0.0042330358 1.67273 1.6728
-20.982 3.3576 0.0042333298 1.67661 1.67665
-20.981 3.3649 0.0042270531 1.6804 1.68053
-20.98 3.3733 0.0042280791 1.68429 1.68438
-20.979 3.3798 0.0042294054 1.68816 1.68812
-20.978 3.3882 0.0042232841 1.69191 1.69192
-20.977 3.3966 0.0042240611 1.69579 1.69576
-20.976 3.4025 0.0042249134 1.69971 1.69971
-20.975 3.4109 0.0042289334 1.70359 1.70355
-20.974 3.4184 0.0042196927 1.70735 1.70731
-20.973 3.4267 0.0042211357 1.71118 1.71115
-20.972 3.436 0.0042250354 1.71492 1.71487
-20.971 3.4411 0.0042251647 1.71868 1.71871
-20.97 3.4496 0.0042189177 1.72244 1.72244
-20.969 3.4572 0.0042197367 1.7263 1.72629
-20.968 3.4642 0.004220511 1.73009 1.7301
-20.967 3.4726 0.00422517 1.73398 1.73399
-20.966 3.4793 0.004216022 1.73764 1.73783
-20.965 3.4875 0.004216919 1.74147 1.7416
-20.964 3.495 0.0042205823 1.74529 1.74529
-20.963 3.5016 0.004211539 1.74907 1.74906
-20.962 3.5102 0.0042128413 1.75286 1.75277
-20.961 3.5174 0.0042168616 1.75667 1.7565
-20.96 3.5241 0.0042175843 1.76038 1.7603
-20.959 3.5329 0.0042205666 1.76413 1.7641
-20.958 3.5398 0.0042117096 1.76791 1.76784
-20.957 3.5477 0.0042129066 1.77173 1.77165
-20.956 3.5553 0.0042172866 1.77552 1.77539
-20.955 3.5617 0.0042179322 1.77918 1.77914
-20.954 3.571 0.0042086462 1.78282 1.78297
-20.953 3.5767 0.0042128159 1.78662 1.78672
-20.952 3.5841 0.0042135842 1.79044 1.7904
-20.951 3.5931 0.0042180572 1.79419 1.79414
-20.95 3.5989 0.0042086872 1.79783 1.79782
-20.949 3.6085 0.0042098572 1.80158 1.80144
-20.948 3.6156 0.0042136758 1.80527 1.80523
-20.947 3.6219 0.0042149958 1.80892 1.8089
-20.946 3.63 0.0042151788 1.8127 1.81267
-20.945 3.6365 0.0042089138 1.81642 1.81638
-20.944 3.6446 0.0042098681 1.82009 1.82007
-20.943 3.6531 0.0042137678 1.82379 1.82371
-20.942 3.6585 0.0042150371 1.82746 1.82731
-20.941 3.6671 0.0042157874 1.83127 1.83104
-20.94 3.6743 0.0042097204 1.83485 1.83482
-20.939 3.6812 0.0042104734 1.83849 1.83852
-20.938 3.6888 0.0042119974 1.84226 1.84231
-20.937 3.6952 0.0042158527 1.84599 1.846
-20.936 3.7043 0.0042167737 1.84962 1.84974
-20.935 3.7103 0.004210386 1.85327 1.85326
-20.934 3.7179 0.004211222 1.85694 1.85694
-20.933 3.7264 0.0042128453 1.86059 1.86053
-20.932 3.7313 0.004216655 1.86434 1.8642
-20.931 3.7415 0.0042168533 1.8681 1.86794
-20.93 3.7475 0.0042105403 1.87161 1.87164
-20.929 3.7525 0.0042119473 1.87527 1.87528
-20.928 3.7636 0.0042129676 1.87885 1.87891
-20.927 3.7694 0.0042168526 1.88253 1.88257
-20.926 3.7736 0.0042175309 1.8862 1.8862
-20.925 3.7852 0.0042189499 1.88988 1.88978
-20.924 3.7906 0.0042130359 1.89352 1.89335
-20.923 3.7982 0.0042138119 1.89712 1.89698
-20.922 3.8069 0.0042179825 1.90071 1.90075
-20.921 3.8119 0.0042193985 1.90443 1.90431
-20.92 3.8194 0.0042201515 1.908 1.9079
-20.919 3.8276 0.0042137095 1.91164 1.91145
-20.918 3.8351 0.0042151708 1.91526 1.91507
-20.917 3.841 0.0042193378 1.91876 1.91891
-20.916 3.8482 0.0042199951 1.92235 1.92241