-21.338 0.0 0.0 0.0 0.0
-21.337 0.0190242 0.0049242635 0.0070509 0.0070501
-21.336 0.0261517 0.00419297955 0.0109708 0.0109704
-21.335 0.039588 0.00460987511 0.0174875 0.017488
-21.334 0.054964 0.0050177052 0.024977 0.024982
-21.333 0.071424 0.00536454336 0.033027 0.033048
-21.332 0.076037 0.00485671031 0.03558 0.035593
-21.331 0.083232 0.00462271586 0.039307 0.039307
-21.33 0.097004 0.00476905011 0.046112 0.046118
-21.329 0.111454 0.00491485829 0.053269 0.053266
-21.328 0.126576 0.00506062317 0.060754 0.060737
-21.327 0.142366 0.00520740088 0.068573 0.068579
-21.326 0.14417 0.00485418621 0.069651 0.069657
-21.325 0.154446 0.00483175137 0.074801 0.074791
-21.324 0.164528 0.00479970953 0.07987 0.079858
-21.323 0.175288 0.00479117341 0.085247 0.085244
-21.322 0.189214 0.0048661308 0.092188 0.092173
-21.321 0.203483 0.00494040482 0.099284 0.099292
-21.32 0.21792 0.00501654061 0.106547 0.106553
-21.319 0.23329 0.00509213113 0.113983 0.113989
-21.318 0.24468 0.00509469537 0.119817 0.11982
-21.317 0.24697 0.00490608651 0.120904 0.120909
-21.316 0.25491 0.00484908089 0.124956 0.124961
-21.315 0.26664 0.00486453952 0.130863 0.130863
-21.314 0.27849 0.00487981625 0.13679 0.13679
-21.313 0.29055 0.00490612118 0.142741 0.142735
-21.312 0.30259 0.00492079821 0.148722 0.148712
-21.311 0.31572 0.00496101709 0.15543 0.155428
-21.31 0.33005 0.00501155046 0.162518 0.162523
-21.309 0.34444 0.00506322657 0.169721 0.16971
-21.308 0.35898 0.00511428191 0.177013 0.176995
-21.307 0.37406 0.00516532598 0.184383 0.184393
-21.306 0.37333 0.00501151784 0.184149 0.184134
-21.305 0.38183 0.00497882851 0.188437 0.188441
-21.304 0.39007 0.00495650761 0.192612 0.192659
-21.303 0.40072 0.00495940129 0.197866 0.197987
-21.302 0.41349 0.00498658525 0.204248 0.204156
-21.301 0.42622 0.00501380791 0.210685 0.210517
-21.3 0.4391 0.00505221187 0.217129 0.216942
-21.299 0.45208 0.0050799964 0.223428 0.223495
-21.298 0.4652 0.00511826666 0.230139 0.23002
-21.297 0.47823 0.00515648262 0.236693 0.236624
-21.296 0.49453 0.00522012529 0.244677 0.24464
-21.295 0.51109 0.00529521603 0.25286 0.25296
-21.294 0.52763 0.00538014174 0.26121 0.2612
-21.293 0.53647 0.00538163171 0.26559 0.26552
-21.292 0.54211 0.00535927331 0.26847 0.26851
-21.291 0.561 0.00548001048 0.27785 0.27773
-21.29 0.58009 0.00562246902 0.28729 0.28727
-21.289 0.59983 0.0057676717 0.29704 0.297
-21.288 0.62006 0.00593462635 0.30715 0.30714
-21.287 1.01417 0.00958767094 0.5023 0.50222
-21.286 0.93464 0.00891769174 0.46291 0.46291
-21.285 0.85073 0.00815754873 0.42117 0.42123
-21.284 0.76227 0.00731546678 0.377474 0.37739
-21.283 0.6692 0.00639368939 0.33134 0.3314
-21.282 0.57147 0.00538224743 0.283075 0.283023
-21.281 0.47692 0.00437316302 0.236308 0.236367
-21.28 0.45728 0.00416660322 0.226496 0.226578
-21.279 0.43646 0.00393707815 0.216233 0.216229
-21.278 0.41456 0.00370704208 0.205488 0.205459
-21.277 1.37532 0.01206746016 0.68151 0.68167
-21.276 0.24153 0.00202252215 0.119746 0.11975
-21.275 0.27129 0.00218793659 0.134514 0.134515
-21.274 0.30194 0.00235343377 0.149756 0.149756
-21.273 0.33342 0.00251873186 0.165475 0.165473
-21.272 0.36616 0.00268468023 0.181686 0.181718
-21.271 0.49606 0.00320015083 0.246439 0.246374
-21.27 0.69932 0.00406284065 0.34759 0.34776
-21.269 0.91 0.00508393775 0.45257 0.45247
-21.268 1.12784 0.0062428525 0.56081 0.56088
-21.267 0.65685 0.00379102131 0.32652 0.32643
-21.266 0.66855 0.00377086189 0.33234 0.33236
-21.265 0.68024 0.00371871037 0.33818 0.33823
-21.264 0.69174 0.00366457719 0.3441 0.344
-21.263 0.70364 0.00358845018 0.35001 0.34992
-21.262 0.71528 0.00348927844 0.35595 0.35588
-21.261 0.74325 0.0036260435 0.36989 0.36991
-21.26 1.11644 0.00439876695 0.55612 0.55608
-21.259 1.55067 0.00630806305 0.77217 0.77213
-21.258 1.99183 0.0093295036 0.99118 0.99111
-21.257 0.80711 0.00404691184 0.40147 0.40151
-21.256 0.80356 0.00404267098 0.39974 0.39969
-21.255 0.79984 0.00402873482 0.39784 0.39799
-21.254 0.79913 0.00401555889 0.39762 0.39756
-21.253 0.8111 0.00400713463 0.40354 0.40356
-21.252 0.82432 0.00400081496 0.41016 0.41025
-21.251 0.83923 0.00400789352 0.41762 0.41753
-21.25 0.85441 0.00402456345 0.4252 0.42515
-21.249 0.86951 0.00404175547 0.43279 0.43267
-21.248 0.88493 0.00405975398 0.44046 0.44051
-21.247 0.90047 0.00408722159 0.44826 0.44823
-21.246 0.91631 0.00411547777 0.45618 0.45608
-21.245 0.93224 0.00414483622 0.46407 0.46399
-21.244 0.94851 0.00417494197 0.47216 0.47219
-21.243 0.96609 0.00422507019 0.48095 0.48089
-21.242 0.98368 0.00426595508 0.48982 0.48974
-21.241 1.00154 0.00431909494 0.49865 0.49867
-21.24 1.01967 0.0043707334 0.50757 0.50771
-21.239 1.03792 0.00442388323 0.51677 0.5168
-21.238 1.05653 0.0044863532 0.52603 0.52597
-21.237 1.39879 0.00560247724 0.69678 0.69656
-21.236 1.3604 0.00532074907 0.67762 0.67764
-21.235 1.32834 0.00511971849 0.66167 0.6617
-21.234 1.29576 0.0049550715 0.64529 0.64537
-21.233 1.26261 0.0048265018 0.62895 0.6289
-21.232 1.22953 0.00474304366 0.61238 0.61234
-21.231 1.24418 0.00475947995 0.6198 0.61969
-21.23 1.27553 0.00480506335 0.63536 0.63532
-21.229 1.30702 0.00483898348 0.65121 0.65118
-21.228 1.33881 0.00485172247 0.66709 0.66706
-21.227 1.107 0.00384291382 0.55154 0.55157
-21.226 1.12232 0.00387191968 0.55913 0.55917
-21.225 1.13755 0.00390167347 0.56684 0.56683
-21.224 1.15285 0.00394081733 0.57459 0.57454
-21.223 1.16848 0.00397041356 0.58227 0.58215
-21.222 1.18417 0.00402173479 0.59004 0.5902
-21.221 1.19995 0.00406176242 0.59802 0.59789
-21.22 1.2158 0.00410346222 0.60587 0.60591
-21.219 1.23188 0.00415395749 0.61387 0.61383
-21.218 1.24803 0.00420647669 0.62181 0.62183
-21.217 1.26173 0.00424649733 0.62871 0.62875
-21.216 1.27554 0.00428684197 0.63555 0.63564
-21.215 1.28922 0.00432659591 0.64246 0.64245
-21.214 1.29805 0.00436313276 0.64685 0.64687
-21.213 1.29889 0.00436267862 0.6472 0.64732
-21.212 1.30182 0.00436429061 0.64871 0.64876
-21.211 1.30555 0.00436580093 0.65074 0.65067
-21.21 1.30932 0.00436683668 0.65236 0.65247
-21.209 1.3128 0.00436643036 0.65416 0.6542
-21.208 1.31613 0.00435668877 0.65586 0.6559
-21.207 1.52276 0.0048683802 0.75891 0.75888
-21.206 1.5172 0.00477321196 0.75617 0.75619
-21.205 1.51164 0.00468887506 0.75351 0.75351
-21.204 1.50617 0.00461309816 0.75071 0.75069
-21.203 1.5004 0.00453943026 0.74797 0.74792
-21.202 1.49643 0.0044788559 0.74585 0.74593
-21.201 1.50042 0.00445954197 0.74792 0.74789
-21.2 1.50452 0.00444821971 0.74996 0.75
-21.199 1.5085 0.00443709372 0.75207 0.75199
-21.198 1.51234 0.00442673173 0.75393 0.75397
-21.197 1.52176 0.00443097193 0.75865 0.75873
-21.196 1.54192 0.00444980577 0.76866 0.76874
-21.195 1.56205 0.00446537521 0.77883 0.77885
-21.194 1.58232 0.00448309998 0.7889 0.78885
-21.193 1.6026 0.00450103882 0.79906 0.79917
-21.192 1.62303 0.00450825959 0.80934 0.80923
-21.191 1.6437 0.00452663736 0.81972 0.81968
-21.19 1.66459 0.00453084486 0.82999 0.82996
-21.189 1.68529 0.00453860566 0.84035 0.84044
-21.188 1.52043 0.00396682162 0.75813 0.75827
-21.187 1.53238 0.00397038483 0.76426 0.76408
-21.186 1.5444 0.00396443201 0.7701 0.77009
-21.185 1.55633 0.003948317 0.77618 0.77618
-21.184 1.56966 0.00393145859 0.7829 0.78281
-21.183 1.5834 0.00391555445 0.78978 0.78974
-21.182 1.59729 0.00389962028 0.79665 0.79668
-21.181 1.61099 0.00388330838 0.80363 0.80365
-21.18 1.62482 0.00385688035 0.81056 0.81055
-21.179 1.63871 0.00383044512 0.81742 0.81747
-21.178 1.65208 0.00380332543 0.82408 0.82421
-21.177 1.66406 0.00376383041 0.8301 0.83004
-21.176 1.67588 0.00372521576 0.83603 0.83593
-21.175 1.68751 0.00367569844 0.84192 0.84199
-21.174 1.69925 0.00363873789 0.84803 0.84795
-21.173 1.70968 0.00358539168 0.85298 0.85299
-21.172 1.71946 0.0035240946 0.85782 0.85792
-21.171 1.72905 0.00346238132 0.86268 0.86273
-21.17 1.7383 0.00339947391 0.86759 0.8674
-21.169 1.748 0.0033265064 0.87242 0.8722
-21.168 1.90782 0.00356913293 0.95179 0.95191
-21.167 1.91175 0.00344848271 0.95436 0.9543
-21.166 1.91692 0.00333391996 0.95675 0.95666
-21.165 1.92082 0.00321298138 0.95914 0.95916
-21.164 1.92644 0.00309854873 0.96166 0.96154
-21.163 1.93079 0.00297641225 0.96405 0.96398
-21.162 1.9362 0.00286365044 0.96624 0.9664
-21.161 1.92553 0.00273554803 0.96124 0.96135
-21.16 1.70954 0.0025249746 0.85345 0.85341
-21.159 1.65002 0.00275069461 0.82353 0.82356
-21.158 1.78703 0.00349204586 0.89188 0.89175
-21.157 1.81799 0.00377068044 0.90708 0.90706
-21.156 1.8232 0.00393629682 0.90951 0.90964
-21.155 1.82826 0.00410210097 0.91214 0.91208
-21.154 1.84918 0.00427559982 0.92256 0.92259
-21.153 1.88604 0.0044570412 0.94077 0.94079
-21.152 1.9042 0.0045421446 0.94983 0.94985
-21.151 1.91818 0.00461118528 0.95708 0.95705
-21.15 1.93352 0.00467301739 0.96436 0.96442
-21.149 1.94749 0.0047425881 0.97167 0.97157
-21.148 1.96185 0.00480156778 0.97899 0.979
-21.147 1.97748 0.00486421046 0.98627 0.98647
-21.146 1.99604 0.00493450427 0.99599 0.99595
-21.145 2.0249 0.00500047995 1.01031 1.01023
-21.144 2.04524 0.00503314965 1.02052 1.02054
-21.143 2.05991 0.00504695776 1.02847 1.02849
-21.142 2.07715 0.00506357414 1.03649 1.03646
-21.141 2.09561 0.00506982222 1.04435 1.04436
-21.14 2.10981 0.0050859316 1.05245 1.05245
-21.139 1.98411 0.00472280088 0.98946 0.98959
-21.138 1.99497 0.00472745814 0.9956 0.99555
-21.137 2.00925 0.00473339427 1.0015 1.00153
-21.136 2.01955 0.0047359455 1.00747 1.00763
-21.135 2.03234 0.00474151463 1.01352 1.01361
-21.134 2.04751 0.00474861926 1.02215 1.02219
-21.133 2.06667 0.00474616309 1.03089 1.03093
-21.132 2.0787 0.0047381657 1.0368 1.03675
-21.131 2.08983 0.00472152431 1.04268 1.04265
-21.13 2.10121 0.00470308562 1.04845 1.04856
-21.129 2.09915 0.00465865838 1.04706 1.04712
-21.128 2.10204 0.00463728209 1.04858 1.04862
-21.127 2.105 0.00461579426 1.05025 1.05008
-21.126 2.10711 0.00460487676 1.05168 1.05175
-21.125 2.11504 0.00460844132 1.05485 1.05487
-21.124 2.12321 0.00462308054 1.05861 1.05851
-21.123 2.12915 0.00463414619 1.06227 1.06219
-21.122 2.13589 0.00464939847 1.06598 1.06592
-21.121 2.14385 0.00466297125 1.06944 1.06944
-21.12 2.3765 0.00476183113 1.18542 1.18546
-21.119 2.37659 0.00478476896 1.18582 1.18572
-21.118 3.1023 0.0072370838 1.54704 1.54707
-21.117 3.022 0.0071438948 1.50755 1.50751
-21.116 2.9425 0.007036073 1.46765 1.46763
-21.115 2.8612 0.0069012149 1.42726 1.42717
-21.114 2.7812 0.0067508482 1.38651 1.38642
-21.113 2.69691 0.0065785531 1.34523 1.34528
-21.112 2.61385 0.0063830798 1.30344 1.30352
-21.111 2.52997 0.0061586796 1.26146 1.26137
-21.11 2.44379 0.0059218066 1.21897 1.219
-21.109 3.102 0.0071160534 1.54849 1.54846
-21.108 2.9182 0.0066584308 1.45589 1.45584
-21.107 2.7314 0.0061716637 1.36241 1.36242
-21.106 2.54188 0.0056487445 1.26826 1.26808
-21.105 2.372 0.005111646 1.18318 1.18309
-21.104 2.21387 0.00455253882 1.10504 1.10496
-21.103 2.08927 0.00425897182 1.04236 1.04244
-21.102 1.96253 0.00397056976 0.97938 0.97938
-21.101 1.83477 0.00367659268 0.91558 0.91565
-21.1 1.7064 0.00337988324 0.85148 0.85146
-21.099 1.57654 0.00307419648 0.78678 0.78677
-21.098 1.45203 0.00277953516 0.72459 0.72456
-21.097 1.47773 0.0027628864 0.7376 0.73762
-21.096 1.50085 0.00274635201 0.7491 0.74909
-21.095 1.51871 0.00272713671 0.75801 0.75811
-21.094 1.5842 0.00277172048 0.79069 0.79065
-21.093 1.69705 0.00289117776 0.84726 0.84723
-21.092 1.81113 0.00301043407 0.90415 0.90408
-21.091 1.92585 0.00312083994 0.96141 0.96132
-21.09 2.04219 0.00323785344 1.01912 1.01913
-21.089 3.2346 0.0053313117 1.61486 1.61488
-21.088 3.12 0.0050686726 1.55719 1.55727
-21.087 3.0027 0.00477528362 1.4991 1.49911
-21.086 2.8847 0.00445504688 1.4404 1.44036
-21.085 2.7652 0.00410373068 1.38115 1.38122
-21.084 2.6457 0.00373273742 1.32141 1.32134
-21.083 2.585 0.00346832922 1.29117 1.29127
-21.082 2.712 0.00360276361 1.35463 1.35458
-21.081 2.8396 0.00372664533 1.41825 1.41834
-21.08 2.07818 0.00359371981 1.03716 1.03716
-21.079 1.98924 0.00312590508 0.99303 0.99301
-21.078 2.13715 0.00333063021 1.06711 1.0671
-21.077 2.28682 0.00355638533 1.14164 1.14178
-21.076 2.4377 0.0037822449 1.21687 1.21676
-21.075 2.5905 0.00401834479 1.29245 1.29239
-21.074 2.7418 0.0042575751 1.3685 1.36858
-21.073 2.8955 0.00451755403 1.44513 1.44531
-21.072 3.0472 0.00478042441 1.52248 1.52241
-21.071 3.2042 0.00505070178 1.60014 1.60009
-21.07 3.3608 0.0053241122 1.67847 1.67838
-21.069 2.3558 0.00371744263 1.17625 1.17616
-21.068 2.3668 0.00374380505 1.18178 1.18174
-21.067 2.3787 0.00376039577 1.1873 1.18731
-21.066 2.3903 0.00378796516 1.19279 1.1928
-21.065 2.4003 0.00381424355 1.19836 1.19839
-21.064 2.4125 0.00383381394 1.20398 1.20392
-21.063 2.4217 0.003861695 1.20948 1.2095
-21.062 2.4345 0.00387848006 1.21505 1.21518
-21.061 2.4437 0.00390521209 1.22069 1.22067
-21.06 6.5077 0.0107491976 3.2476 3.2481
-21.059 3.4724 0.0057674288 1.73303 1.73306
-21.058 2.3351 0.00358736297 1.16581 1.16585
-21.057 2.3458 0.00358858643 1.17092 1.1709
-21.056 2.3561 0.00359284186 1.17586 1.17588
-21.055 2.4179 0.003660282 1.20704 1.20704
-21.054 2.8422 0.00417730997 1.41845 1.41854
-21.053 3.2661 0.0047483054 1.63086 1.63091
-21.052 3.6956 0.0053662818 1.84495 1.84507
-21.051 4.1255 0.0060449035 2.05958 2.0597
-21.05 2.6378 0.00384490458 1.31669 1.31663
-21.049 2.6409 0.0038327833 1.31822 1.31816
-21.048 2.6436 0.00382168202 1.31968 1.31969
-21.047 2.6464 0.00380986374 1.32113 1.32115
-21.046 2.6503 0.00379837183 1.3226 1.32262
-21.045 2.654 0.00378698852 1.32403 1.32398
-21.044 2.6549 0.00377546461 1.3253 1.32538
-21.043 2.6579 0.00376368797 1.32674 1.32676
-21.042 2.6583 0.00375296203 1.32812 1.32814
-21.041 2.6619 0.00374115509 1.32943 1.3294
-21.04 2.6672 0.00374094542 1.33131 1.33136
-21.039 2.6727 0.00373125951 1.33502 1.33496
-21.038 2.683 0.00374585587 1.33962 1.3396
-21.037 2.6929 0.00375164896 1.34429 1.34433
-21.036 2.7011 0.00376312202 1.34896 1.34888
-21.035 2.7121 0.00377831238 1.35358 1.35359
-21.034 2.7205 0.00379394044 1.35904 1.35897
-21.033 2.735 0.00380675486 1.36488 1.3648
-21.032 2.7468 0.00382312425 1.37084 1.37086
-21.031 2.7562 0.00383978231 1.37682 1.3768
-21.03 2.7698 0.0038650924 1.38284 1.3828
-21.029 2.7821 0.00388151246 1.38877 1.38882
-21.028 2.7928 0.00390838555 1.39487 1.39478
-21.027 2.8094 0.00393570261 1.40215 1.40216
-21.026 2.8203 0.00396247064 1.40859 1.40862
-21.025 2.8348 0.00397935867 1.4149 1.41482
-21.024 2.8536 0.00400733678 1.42537 1.42528
-21.023 4.2275 0.0081938381 2.10988 2.11015
-21.022 6.2001 0.011745905 3.095 3.0942
-21.021 8.1789 0.012375101 4.082 4.0822
-21.02 2.898 0.00403261701 1.4468 1.44686
-21.019 2.8953 0.00402010404 1.44587 1.44581
-21.018 2.9041 0.0040106364 1.44995 1.45005
-21.017 2.9125 0.00401187246 1.45489 1.45484
-21.016 2.9249 0.00400600952 1.45988 1.45972
-21.015 2.9333 0.00399746788 1.46497 1.46499
-21.014 2.9428 0.00399866891 1.47005 1.47003
-21.013 2.9545 0.0039923383 1.47509 1.47501
-21.012 2.9639 0.00399373036 1.48008 1.48006
-21.011 2.8617 0.00381652349 1.42922 1.42911
-21.01 2.8716 0.00382221219 1.43394 1.43402
-21.009 2.8823 0.00383739622 1.43883 1.43894
-21.008 2.8905 0.00384318292 1.44385 1.44383
-21.007 2.9015 0.00384596392 1.44899 1.4488
-21.006 2.9117 0.00385173595 1.45412 1.45406
-21.005 2.9227 0.00386771328 1.45932 1.45923
-21.004 2.9318 0.00387333531 1.46463 1.46457
-21.003 2.9436 0.00388944334 1.46971 1.4698
-21.002 2.9543 0.00389572567 1.4751 1.47508
-21.001 2.9649 0.0039091877 1.48019 1.48009
-21.0 2.9752 0.00392501106 1.48552 1.48549
-20.999 2.9862 0.00393141109 1.49077 1.49064
-20.998 2.9971 0.00394691645 1.49601 1.49592
-20.997 3.0057 0.00396345951 1.5012 1.50129
-20.996 3.0202 0.00397999417 1.50767 1.50764
-20.995 3.0321 0.0039966155 1.51369 1.51368
-20.994 3.0409 0.00400303556 1.51916 1.51919
-20.993 3.0554 0.00401845259 1.52468 1.52478
-20.992 3.0619 0.00403493922 1.53026 1.53024
-20.991 3.0756 0.00404043528 1.53573 1.53572
-20.99 3.1779 0.00415196629 1.58731 1.58708
-20.989 3.1873 0.00415252068 1.59208 1.59194
-20.988 3.2 0.00415725237 1.59671 1.59667
-20.987 3.2067 0.00416919576 1.60164 1.6015
-20.986 3.2175 0.00417299448 1.60646 1.60639
-20.985 3.2267 0.00418810917 1.61112 1.61109
-20.984 3.2352 0.00418938459 1.61602 1.61598
-20.983 3.2461 0.00420465228 1.62088 1.62088
-20.982 3.2558 0.00420877497 1.62555 1.62558
-20.981 4.7331 0.0059596997 2.3638 2.3632
-20.98 4.4497 0.0055124645 2.2227 2.2222
-20.979 4.253 0.0052490891 2.12439 2.12447
-20.978 4.0601 0.005025105 2.02801 2.02712
-20.977 3.8679 0.0048353819 1.93138 1.93097
-20.976 3.7647 0.0047569301 1.87995 1.87988
-20.975 3.8626 0.0048485279 1.928 1.92819
-20.974 3.9585 0.0049352424 1.97714 1.97642
-20.973 4.056 0.00501314 2.02456 2.02511
-20.972 4.1516 0.0050760657 2.07442 2.07402
-20.971 3.2744 0.00395806828 1.63525 1.63535
-20.97 3.2814 0.00394818831 1.63919 1.63909
-20.969 3.2892 0.00393825467 1.64295 1.64294
-20.968 3.2969 0.0039271534 1.64678 1.64669
-20.967 3.3057 0.00391784013 1.65055 1.65049
-20.966 3.3135 0.00390701246 1.65444 1.65434
-20.965 3.3226 0.00391120382 1.65967 1.65969
-20.964 3.3346 0.00390213988 1.66524 1.66534
-20.963 3.3455 0.00390620794 1.67083 1.67086
-20.962 3.3563 0.0039070346 1.67615 1.67615
-20.961 3.3715 0.00391270502 1.68326 1.68333
-20.96 3.4078 0.00397390184 1.70198 1.70208
-20.959 3.445 0.0040346936 1.72105 1.72115
-20.958 3.4827 0.0040853509 1.74004 1.7401
-20.957 3.522 0.0041353226 1.75914 1.75915
-20.956 3.5605 0.004181761 1.7783 1.77835
-20.955 3.5999 0.004221133 1.79746 1.79756
-20.954 3.6384 0.0042676134 1.81688 1.81671
-20.953 3.6774 0.0043035705 1.83627 1.83609
-20.952 3.7159 0.0043419042 1.85587 1.85527
-20.951 3.7535 0.0043776459 1.8751 1.87464
-20.95 3.7934 0.004403465 1.89478 1.89418
-20.949 3.8323 0.0044375681 1.91446 1.91435
-20.948 3.9602 0.0045610879 1.97765 1.97748
-20.947 4.1235 0.0047420645 2.05858 2.05896
-20.946 4.2856 0.0049136927 2.14003 2.13986
-20.945 4.4469 0.0050848023 2.22155 2.22095
-20.944 4.6097 0.0052532782 2.3028 2.303
-20.943 4.7733 0.0054250498 2.3848 2.3843
-20.942 4.9385 0.0055967177 2.4665 2.4667
-20.941 5.1031 0.0057682413 2.5489 2.5492
-20.94 5.2703 0.0059266872 2.6309 2.6317
-20.939 5.4343 0.0060987118 2.7129 2.7143
-20.938 7.1493 0.0079690736 3.5711 3.5694
-20.937 8.7315 0.0097635078 4.3613 4.3615
-20.936 7.6368 0.0086403454 3.8132 3.8148
-20.935 6.5368 0.0074764162 3.2646 3.2632
-20.934 5.4306 0.0062667916 2.713 2.7115
-20.933 4.3199 0.0050369709 2.15799 2.15819
-20.932 2.7349 0.0029589407 1.36597 1.36593
-20.931 2.5085 0.00283547939 1.25246 1.25236
-20.93 2.279 0.00266918718 1.13833 1.13841
-20.929 2.04898 0.00246199067 1.02396 1.02402
-20.928 1.82064 0.00222300193 0.90906 0.9092
-20.927 1.60336 0.00194694282 0.80069 0.80076
-20.926 1.39039 0.00163070611 0.69436 0.69439
-20.925 1.17661 0.00127952006 0.58773 0.58762
-20.924 0.97413 0.00091056022 0.4868 0.48668
-20.923 0.97985 0.00091352962 0.48952 0.48943
-20.922 1.12134 0.00120691135 0.56015 0.56013
-20.921 1.2834 0.00150048777 0.64094 0.64096
-20.92 1.4533 0.00176927363 0.7256 0.72581
-20.919 1.62354 0.00201685682 0.81073 0.81081
-20.918 1.79406 0.00223860097 0.89619 0.89604
-20.917 1.96835 0.00243824131 0.98339 0.98341
-20.916 2.15025 0.00262273654 1.07342 1.0735
-20.915 2.33143 0.00278242889 1.16385 1.16378
-20.914 2.5113 0.00290564563 1.25481 1.25463
-20.913 2.6929 0.00301446402 1.34594 1.3459
-20.912 2.19964 0.00226718047 1.09779 1.09782
-20.911 2.4168 0.00247572147 1.20729 1.20724
-20.91 2.637 0.00267580434 1.31707 1.31725
-20.909 2.8576 0.00288583661 1.4275 1.42747
-20.908 3.0781 0.00309546932 1.53803 1.53809
-20.907 3.3032 0.0033060419 1.64916 1.64916
-20.906 3.5256 0.00352072245 1.76061 1.76068
-20.905 3.7497 0.00372200067 1.87277 1.8726
-20.904 3.974 0.0039375328 1.98417 1.98469
-20.903 4.1993 0.0041526173 2.09726 2.09817
-20.902 4.4259 0.0043691395 2.21184 2.21127
-20.901 4.6531 0.004588659 2.3247 2.32523
-20.9 4.8825 0.0048060659 2.4372 2.4391
-20.899 5.1091 0.0050260265 2.5533 2.553
-20.898 5.3394 0.0052476941 2.6674 2.6675
-20.897 5.0794 0.0049013709 2.5374 2.53728
-20.896 4.7892 0.0045365567 2.39311 2.39271
-20.895 4.4975 0.0042040051 2.2477 2.24713
-20.894 4.204 0.00387652418 2.10155 2.10114
-20.893 3.9131 0.00358131395 1.95514 1.95509
-20.892 4.7376 0.004516743 2.3673 2.36764
-20.891 4.685 0.0045081963 2.3405 2.341
-20.89 4.6899 0.0045773708 2.3418 2.34191
-20.889 4.7033 0.0046793418 2.3494 2.35046
-20.888 4.7537 0.0048637046 2.37574 2.37358
-20.887 4.8964 0.0052082753 2.4461 2.44457
-20.886 5.0386 0.0055945793 2.51764 2.51654
-20.885 5.1824 0.0060299767 2.5882 2.58766
-20.884 5.3269 0.0064996721 2.6599 2.6617
-20.883 5.5949 0.0070363108 2.7935 2.7938
-20.882 5.5722 0.0069256146 2.7824 2.782
-20.881 5.389 0.0065384215 2.6919 2.6921
-20.88 5.2077 0.00617586 2.6014 2.6022
-20.879 5.0261 0.0058354641 2.5096 2.5096
-20.878 4.841 0.0055155088 2.41781 2.41851
-20.877 4.6569 0.0052157641 2.3257 2.3258
-20.876 4.4678 0.0049348104 2.23064 2.23175
-20.875 4.2789 0.0046663669 2.13631 2.13612
-20.874 4.0872 0.0044126185 2.0419 2.04156
-20.873 4.4645 0.004754757 2.23141 2.23051
-20.872 4.4289 0.0046669462 2.21136 2.21283
-20.871 4.3914 0.0045795971 2.19331 2.19363
-20.87 4.3549 0.0044919996 2.17521 2.17482
-20.869 4.3156 0.0044036278 2.15623 2.1574
-20.868 4.2806 0.0043170463 2.13773 2.13761
-20.867 4.2395 0.0042391485 2.1182 2.11898
-20.866 4.2028 0.0041521483 2.09887 2.09992
-20.865 4.1657 0.0040783538 2.08058 2.08074
-20.864 4.1265 0.0039905703 2.06161 2.06276
-20.863 4.0984 0.0039162917 2.04713 2.04759
-20.862 4.1277 0.003909434 2.0616 2.06147
-20.861 4.1719 0.0039332972 2.0849 2.08375
-20.86 4.2185 0.003945082 2.10673 2.10699
-20.859 4.2633 0.0039662455 2.12965 2.12984
-20.858 3.4263 0.00329020687 1.7116 1.71169
-20.857 3.4824 0.00334317612 1.74011 1.74013
-20.856 3.5397 0.00339627747 1.76859 1.76868
-20.855 3.5969 0.0034522439 1.79722 1.79737
-20.854 3.655 0.0035057924 1.82599 1.82604
-20.853 3.7129 0.0035598568 1.85503 1.85485
-20.852 3.7714 0.0036165616 1.8838 1.88378
-20.851 3.8293 0.0036703653 1.91245 1.9128
-20.85 3.8868 0.0037273526 1.94187 1.94179
-20.849 3.9454 0.0037814713 1.97049 1.971
-20.848 4.0045 0.003838605 2.0006 1.99979
-20.847 4.0627 0.0038966184 2.02908 2.02906
-20.846 4.1216 0.0039507051 2.05811 2.05928
-20.845 4.1761 0.0040079205 2.08585 2.08661
-20.844 3.7136 0.0034841085 1.85504 1.85494
-20.843 3.747 0.003522558 1.87123 1.87133
-20.842 3.7813 0.0035619118 1.88817 1.88796
-20.841 3.8136 0.0036140829 1.90481 1.9049
-20.84 3.846 0.0036643004 1.92148 1.92126
-20.839 3.8843 0.0037150435 1.94028 1.9403
-20.838 3.9116 0.003741339 1.95355 1.9535
-20.837 3.8939 0.0036976169 1.94545 1.94524
-20.836 3.8796 0.0036533245 1.93727 1.93757
-20.835 3.8632 0.0036225004 1.92944 1.92897
-20.834 3.8464 0.0035800776 1.92082 1.92118
-20.833 4.8793 0.0045491575 2.4376 2.4384
-20.832 5.1175 0.0047665555 2.5565 2.5573
-20.831 5.3569 0.0049960772 2.6745 2.6749
-20.83 5.3581 0.004998971 2.6768 2.6774
-20.829 5.2429 0.0048802249 2.6194 2.6184
-20.828 5.1272 0.0047748331 2.5607 2.5598
-20.827 5.0082 0.0046556496 2.5019 2.5014
-20.826 4.8923 0.0045364681 2.4444 2.4441
-20.825 4.7745 0.0044282176 2.3848 2.384
-20.824 4.6551 0.0043091454 2.32512 2.3248
-20.823 4.6377 0.0043311823 2.3168 2.31802
-20.822 4.5201 0.0042695478 2.25866 2.25781
-20.821 4.4033 0.0042071766 2.1984 2.19787
-20.82 4.2806 0.0041406434 2.13833 2.13903
-20.819 4.1924 0.0040977531 2.09381 2.09275
-20.818 4.2087 0.0041598697 2.1022 2.10227
-20.817 4.2245 0.0042194597 2.11034 2.11165
-20.816 4.2428 0.004270712 2.12005 2.11998
-20.815 4.2612 0.004319123 2.12777 2.12795
-20.814 4.2779 0.004376404 2.13647 2.13717
-20.813 4.2952 0.0044119713 2.14547 2.14576
-20.812 4.3121 0.0044585556 2.15411 2.15451
-20.811 4.3313 0.0045047709 2.16321 2.16269
-20.81 4.348 0.0045386552 2.17131 2.17132
-20.809 4.3668 0.0045718831 2.18104 2.17993
-20.808 4.3823 0.0046039281 2.18888 2.18817
-20.807 4.4213 0.0046535113 2.20791 2.20771
-20.806 4.4736 0.0047085401 2.23593 2.23567
-20.805 4.5284 0.0047600736 2.26071 2.26192
-20.804 10.7812 0.0109038179 5.3857 5.3875
-20.803 6.1696 0.0062524814 3.0807 3.0806
-20.802 4.5027 0.0046436998 2.24933 2.2502
-20.801 4.4017 0.0044808728 2.19832 2.19878
-20.8 4.2978 0.0043211361 2.14562 2.14658
-20.799 4.2257 0.0041940951 2.11121 2.11022
-20.798 4.1841 0.0040921333 2.08901 2.08954
-20.797 4.1406 0.0040009187 2.06884 2.06847
-20.796 4.0994 0.0039202388 2.04785 2.04777
-20.795 4.056 0.0038405284 2.02595 2.02604
-20.794 4.0027 0.0037576006 1.99943 1.99908
-20.793 3.9558 0.003681155 1.97639 1.97594
-20.792 3.9175 0.0036207458 1.95724 1.95661
-20.791 3.8837 0.0035680963 1.94054 1.93998
-20.79 3.8491 0.003518798 1.92259 1.92252
-20.789 3.8121 0.0034690257 1.9049 1.9048
-20.788 3.7944 0.0034531512 1.89505 1.89565
-20.787 3.8733 0.0035230639 1.93496 1.93531
-20.786 3.9536 0.0035834959 1.97508 1.97464
-20.785 4.0333 0.0036438894 2.01502 2.01447
-20.784 4.1674 0.0037133115 2.08109 2.0817
-20.783 4.3163 0.0037952435 2.15571 2.1557
-20.782 4.4706 0.0038788831 2.23303 2.23346
-20.781 4.6481 0.0039842881 2.32199 2.32019
-20.78 4.8255 0.0040874868 2.4107 2.4105
-20.779 5.004 0.0041943691 2.4999 2.501
-20.778 5.1815 0.0043144881 2.5898 2.5896
-20.777 5.3613 0.0044332454 2.6797 2.6786
-20.776 5.5423 0.0045582747 2.7694 2.7692
-20.775 7.139 0.0059852922 3.5661 3.5657
-20.774 6.1289 0.0051062002 3.0603 3.061
-20.773 6.077 0.0050537119 3.0349 3.0359
-20.772 6.0266 0.0049992475 3.0115 3.0115
-20.771 5.9766 0.0049495834 2.9861 2.9867
-20.77 5.9264 0.0049105309 2.9615 2.9612
-20.769 5.875 0.0048628763 2.9357 2.9367
-20.768 5.8261 0.0048259933 2.9115 2.9098
-20.767 5.774 0.0047905259 2.8846 2.8845
-20.766 5.7238 0.0047559891 2.86 2.8594
-20.765 6.5805 0.0054599919 3.288 3.2871
-20.764 6.0906 0.0050098266 3.0431 3.0417
-20.763 5.7325 0.0047057149 2.8637 2.8641
-20.762 5.4054 0.0044400828 2.6998 2.7006
-20.761 5.077 0.0041747241 2.5371 2.5362
-20.76 4.8214 0.0039744779 2.4084 2.4085
-20.759 4.8053 0.0039562498 2.4014 2.4013
-20.758 4.7905 0.0039512664 2.3928 2.3923
-20.757 4.7732 0.0039365987 2.3852 2.3847
-20.756 4.7584 0.0039318263 2.3779 2.3775
-20.755 4.7424 0.0039274319 2.3688 2.3697
-20.754 4.7243 0.0039159969 2.3605 2.3616
-20.753 4.7109 0.0039115092 2.3531 2.3531
-20.752 4.6943 0.0039071448 2.3448 2.3455
-20.751 4.678 0.0039032181 2.3375 2.3367
-20.75 4.662 0.0039021048 2.32937 2.32977
-20.749 4.6439 0.0038982981 2.32034 2.32074
-20.748 4.6315 0.0038942571 2.3128 2.3128
-20.747 4.614 0.0038936361 2.30446 2.30536
-20.746 4.5962 0.0038895024 2.29663 2.29563
-20.745 4.3908 0.0037016874 2.19315 2.19475
-20.744 4.3684 0.0036830152 2.18151 2.18131
-20.743 4.3439 0.0036646244 2.17027 2.17067
-20.742 4.3148 0.0036356191 2.15622 2.15472
-20.741 4.2827 0.0036152273 2.13947 2.13927
-20.74 4.2867 0.0036197929 2.14229 2.14159
-20.739 4.3075 0.0036407049 2.15175 2.15085
-20.738 4.3263 0.0036594568 2.1621 2.162
-20.737 4.3459 0.0036698857 2.17196 2.17206
-20.736 4.3677 0.0036872304 2.18251 2.18211
-20.735 6.4078 0.00546106 3.2016 3.2014
-20.734 6.0121 0.0051307346 3.004 3.0023
-20.733 5.6139 0.0047903236 2.8047 2.8043
-20.732 5.215 0.0044486496 2.6048 2.6046
-20.731 4.8142 0.0040926364 2.4048 2.4055
-20.73 4.4127 0.0037256739 2.20559 2.20499
-20.729 4.1892 0.0035224719 2.09192 2.09192
-20.728 4.2083 0.0035440323 2.10268 2.10368
-20.727 4.2297 0.0035632701 2.11455 2.11325
-20.726 4.2533 0.0035847669 2.12612 2.12512
-20.725 4.8521 0.0040117411 2.4247 2.4241
-20.724 5.0753 0.0041796506 2.5342 2.5344
-20.723 5.2997 0.0043485045 2.6467 2.6472
-20.722 5.5227 0.0045260918 2.7587 2.7587
-20.721 5.7461 0.0046965139 2.8717 2.8712
-20.72 5.9716 0.0048767877 2.9837 2.9836
-20.719 6.1974 0.0050590593 3.0969 3.0962
-20.718 6.4241 0.0052409093 3.2093 3.2091
-20.717 6.6524 0.005434827 3.3222 3.3226
-20.716 5.0428 0.0041105574 2.52 2.5191
-20.715 4.9079 0.0039964722 2.4506 2.4522
-20.714 4.7723 0.0038929443 2.3857 2.3839
-20.713 4.6369 0.0037765404 2.3171 2.3174
-20.712 4.6235 0.0037629002 2.3101 2.309
-20.711 4.6292 0.0037630562 2.3123 2.3115
-20.71 4.6319 0.0037563829 2.3148 2.3138
-20.709 4.6363 0.0037568479 2.3165 2.3163
-20.708 4.6399 0.0037574989 2.3182 2.3189
-20.707 4.6462 0.0037614549 2.3201 2.3212
-20.706 4.6495 0.0037619376 2.3228 2.3232
-20.705 4.6559 0.0037653453 2.3247 2.3245
-20.704 4.7543 0.0038618324 2.3742 2.3752
-20.703 4.8867 0.0039828123 2.4421 2.4423
-20.702 5.0224 0.0041028383 2.5083 2.5086
-20.701 5.0834 0.0041468133 2.5396 2.5391
-20.7 5.0864 0.004135505 2.5421 2.5422
-20.699 5.0919 0.0041350617 2.5435 2.5449
-20.698 5.0982 0.0041250497 2.546 2.5474
-20.697 5.1007 0.0041207984 2.5481 2.5492
-20.696 5.1052 0.0041105174 2.5518 2.5513
-20.695 5.1148 0.0040994581 2.5543 2.5537
-20.694 5.1182 0.0040989808 2.5568 2.5561
-20.693 5.1209 0.0040885108 2.5586 2.5578
-20.692 5.1261 0.0040845685 2.5605 2.5619
-20.691 5.1336 0.0040739205 2.564 2.5651
-20.69 5.1354 0.0040624332 2.5662 2.5667
-20.689 5.14 0.0040622745 2.5683 2.5691
-20.688 5.1457 0.0040514099 2.5716 2.5709
-20.687 5.1502 0.0040509429 2.5732 2.5729
-20.686 15.2948 0.0167601114 7.6383 7.6388
-20.685 4.8871 0.0037912815 2.4424 2.443
-20.684 4.895 0.0037808295 2.4473 2.4464
-20.683 4.9045 0.0037803819 2.4503 2.4506
-20.682 4.915 0.0037692356 2.4557 2.4555
-20.681 5.5085 0.0041965675 2.7519 2.752
-20.68 6.2364 0.0047307629 3.1174 3.1154
-20.679 6.9698 0.0052759519 3.481 3.4815
-20.678 7.7017 0.0058464985 3.8487 3.848
-20.677 8.4361 0.0064292777 4.2157 4.2147
-20.676 4.854 0.0036178139 2.4255 2.4257
-20.675 4.8674 0.0036090949 2.4326 2.432
-20.674 4.8833 0.0036096532 2.439 2.4386
-20.673 4.8955 0.0036043319 2.4455 2.4453
-20.672 4.9077 0.0036052592 2.4521 2.4527
-20.671 4.9217 0.0036054962 2.4582 2.4593
-20.67 4.936 0.0036000865 2.4656 2.4663
-20.669 4.9479 0.0036019525 2.473 2.4725
-20.668 4.9634 0.0035953758 2.4783 2.4796
-20.667 4.9799 0.0035980044 2.49 2.4885
-20.666 5.016 0.0036098613 2.5064 2.5062
-20.665 5.0479 0.0036293032 2.5225 2.523
-20.664 5.0828 0.0036412154 2.5394 2.5401
-20.663 5.1177 0.0036504176 2.557 2.556
-20.662 5.1509 0.0036725008 2.5739 2.5741
-20.661 5.1846 0.0036849337 2.5904 2.5903
-20.66 5.2169 0.0037037162 2.607 2.607