# E (eV) pdos(E) 
-21.338  0.000E+00
-21.337  0.303E+02
-21.336  0.258E+02
-21.335  0.283E+02
-21.334  0.308E+02
-21.333  0.329E+02
-21.332  0.298E+02
-21.331  0.284E+02
-21.330  0.292E+02
-21.329  0.301E+02
-21.328  0.310E+02
-21.327  0.318E+02
-21.326  0.297E+02
-21.325  0.295E+02
-21.324  0.292E+02
-21.323  0.292E+02
-21.322  0.296E+02
-21.321  0.300E+02
-21.320  0.305E+02
-21.319  0.309E+02
-21.318  0.309E+02
-21.317  0.297E+02
-21.316  0.293E+02
-21.315  0.294E+02
-21.314  0.295E+02
-21.313  0.295E+02
-21.312  0.296E+02
-21.311  0.298E+02
-21.310  0.301E+02
-21.309  0.304E+02
-21.308  0.306E+02
-21.307  0.309E+02
-21.306  0.299E+02
-21.305  0.296E+02
-21.304  0.294E+02
-21.303  0.294E+02
-21.302  0.295E+02
-21.301  0.296E+02
-21.300  0.297E+02
-21.299  0.298E+02
-21.298  0.299E+02
-21.297  0.300E+02
-21.296  0.303E+02
-21.295  0.306E+02
-21.294  0.309E+02
-21.293  0.307E+02
-21.292  0.304E+02
-21.291  0.307E+02
-21.290  0.311E+02
-21.289  0.315E+02
-21.288  0.318E+02
-21.287  0.511E+02
-21.286  0.460E+02
-21.285  0.410E+02
-21.284  0.360E+02
-21.283  0.311E+02
-21.282  0.261E+02
-21.281  0.214E+02
-21.280  0.202E+02
-21.279  0.189E+02
-21.278  0.177E+02
-21.277  0.577E+02
-21.276  0.101E+02
-21.275  0.112E+02
-21.274  0.123E+02
-21.273  0.135E+02
-21.272  0.146E+02
-21.271  0.196E+02
-21.270  0.273E+02
-21.269  0.350E+02
-21.268  0.428E+02
-21.267  0.245E+02
-21.266  0.246E+02
-21.265  0.247E+02
-21.264  0.248E+02
-21.263  0.249E+02
-21.262  0.250E+02
-21.261  0.256E+02
-21.260  0.377E+02
-21.259  0.517E+02
-21.258  0.656E+02
-21.257  0.264E+02
-21.256  0.259E+02
-21.255  0.255E+02
-21.254  0.252E+02
-21.253  0.252E+02
-21.252  0.254E+02
-21.251  0.255E+02
-21.250  0.257E+02
-21.249  0.259E+02
-21.248  0.261E+02
-21.247  0.263E+02
-21.246  0.265E+02
-21.245  0.266E+02
-21.244  0.268E+02
-21.243  0.270E+02
-21.242  0.272E+02
-21.241  0.274E+02
-21.240  0.276E+02
-21.239  0.279E+02
-21.238  0.281E+02
-21.237  0.369E+02
-21.236  0.356E+02
-21.235  0.344E+02
-21.234  0.332E+02
-21.233  0.321E+02
-21.232  0.309E+02
-21.231  0.310E+02
-21.230  0.315E+02
-21.229  0.320E+02
-21.228  0.325E+02
-21.227  0.267E+02
-21.226  0.268E+02
-21.225  0.270E+02
-21.224  0.271E+02
-21.223  0.272E+02
-21.222  0.274E+02
-21.221  0.275E+02
-21.220  0.276E+02
-21.219  0.277E+02
-21.218  0.279E+02
-21.217  0.279E+02
-21.216  0.280E+02
-21.215  0.281E+02
-21.214  0.280E+02
-21.213  0.278E+02
-21.212  0.277E+02
-21.211  0.276E+02
-21.210  0.274E+02
-21.209  0.273E+02
-21.208  0.271E+02
-21.207  0.312E+02
-21.206  0.309E+02
-21.205  0.305E+02
-21.204  0.302E+02
-21.203  0.299E+02
-21.202  0.296E+02
-21.201  0.295E+02
-21.200  0.294E+02
-21.199  0.292E+02
-21.198  0.291E+02
-21.197  0.291E+02
-21.196  0.292E+02
-21.195  0.295E+02
-21.194  0.296E+02
-21.193  0.298E+02
-21.192  0.300E+02
-21.191  0.302E+02
-21.190  0.304E+02
-21.189  0.306E+02
-21.188  0.274E+02
-21.187  0.274E+02
-21.186  0.275E+02
-21.185  0.275E+02
-21.184  0.276E+02
-21.183  0.276E+02
-21.182  0.277E+02
-21.181  0.278E+02
-21.180  0.278E+02
-21.179  0.279E+02
-21.178  0.280E+02
-21.177  0.280E+02
-21.176  0.280E+02
-21.175  0.280E+02
-21.174  0.281E+02
-21.173  0.281E+02
-21.172  0.281E+02
-21.171  0.280E+02
-21.170  0.280E+02
-21.169  0.280E+02
-21.168  0.304E+02
-21.167  0.303E+02
-21.166  0.302E+02
-21.165  0.301E+02
-21.164  0.301E+02
-21.163  0.300E+02
-21.162  0.299E+02
-21.161  0.296E+02
-21.160  0.261E+02
-21.159  0.251E+02
-21.158  0.270E+02
-21.157  0.273E+02
-21.156  0.273E+02
-21.155  0.272E+02
-21.154  0.274E+02
-21.153  0.278E+02
-21.152  0.279E+02
-21.151  0.280E+02
-21.150  0.281E+02
-21.149  0.281E+02
-21.148  0.282E+02
-21.147  0.283E+02
-21.146  0.284E+02
-21.145  0.287E+02
-21.144  0.288E+02
-21.143  0.289E+02
-21.142  0.290E+02
-21.141  0.291E+02
-21.140  0.291E+02
-21.139  0.273E+02
-21.138  0.273E+02
-21.137  0.274E+02
-21.136  0.274E+02
-21.135  0.274E+02
-21.134  0.275E+02
-21.133  0.276E+02
-21.132  0.277E+02
-21.131  0.277E+02
-21.130  0.277E+02
-21.129  0.275E+02
-21.128  0.275E+02
-21.127  0.274E+02
-21.126  0.273E+02
-21.125  0.272E+02
-21.124  0.272E+02
-21.123  0.272E+02
-21.122  0.272E+02
-21.121  0.271E+02
-21.120  0.299E+02
-21.119  0.298E+02
-21.118  0.388E+02
-21.117  0.376E+02
-21.116  0.364E+02
-21.115  0.353E+02
-21.114  0.341E+02
-21.113  0.329E+02
-21.112  0.318E+02
-21.111  0.306E+02
-21.110  0.295E+02
-21.109  0.373E+02
-21.108  0.349E+02
-21.107  0.325E+02
-21.106  0.302E+02
-21.105  0.280E+02
-21.104  0.261E+02
-21.103  0.245E+02
-21.102  0.229E+02
-21.101  0.213E+02
-21.100  0.198E+02
-21.099  0.182E+02
-21.098  0.167E+02
-21.097  0.169E+02
-21.096  0.171E+02
-21.095  0.173E+02
-21.094  0.180E+02
-21.093  0.192E+02
-21.092  0.204E+02
-21.091  0.216E+02
-21.090  0.228E+02
-21.089  0.360E+02
-21.088  0.346E+02
-21.087  0.332E+02
-21.086  0.318E+02
-21.085  0.303E+02
-21.084  0.289E+02
-21.083  0.282E+02
-21.082  0.295E+02
-21.081  0.307E+02
-21.080  0.224E+02
-21.079  0.213E+02
-21.078  0.229E+02
-21.077  0.244E+02
-21.076  0.259E+02
-21.075  0.274E+02
-21.074  0.289E+02
-21.073  0.304E+02
-21.072  0.319E+02
-21.071  0.334E+02
-21.070  0.349E+02
-21.069  0.244E+02
-21.068  0.244E+02
-21.067  0.245E+02
-21.066  0.245E+02
-21.065  0.245E+02
-21.064  0.246E+02
-21.063  0.246E+02
-21.062  0.246E+02
-21.061  0.246E+02
-21.060  0.652E+02
-21.059  0.347E+02
-21.058  0.233E+02
-21.057  0.233E+02
-21.056  0.233E+02
-21.055  0.239E+02
-21.054  0.280E+02
-21.053  0.321E+02
-21.052  0.362E+02
-21.051  0.403E+02
-21.050  0.256E+02
-21.049  0.256E+02
-21.048  0.255E+02
-21.047  0.255E+02
-21.046  0.254E+02
-21.045  0.254E+02
-21.044  0.253E+02
-21.043  0.253E+02
-21.042  0.252E+02
-21.041  0.252E+02
-21.040  0.251E+02
-21.039  0.251E+02
-21.038  0.251E+02
-21.037  0.251E+02
-21.036  0.251E+02
-21.035  0.251E+02
-21.034  0.252E+02
-21.033  0.252E+02
-21.032  0.252E+02
-21.031  0.252E+02
-21.030  0.253E+02
-21.029  0.253E+02
-21.028  0.254E+02
-21.027  0.254E+02
-21.026  0.255E+02
-21.025  0.255E+02
-21.024  0.256E+02
-21.023  0.377E+02
-21.022  0.552E+02
-21.021  0.726E+02
-21.020  0.257E+02
-21.019  0.256E+02
-21.018  0.256E+02
-21.017  0.256E+02
-21.016  0.256E+02
-21.015  0.257E+02
-21.014  0.257E+02
-21.013  0.257E+02
-21.012  0.257E+02
-21.011  0.247E+02
-21.010  0.247E+02
-21.009  0.248E+02
-21.008  0.248E+02
-21.007  0.248E+02
-21.006  0.248E+02
-21.005  0.248E+02
-21.004  0.249E+02
-21.003  0.249E+02
-21.002  0.249E+02
-21.001  0.249E+02
-21.000  0.249E+02
-20.999  0.250E+02
-20.998  0.250E+02
-20.997  0.250E+02
-20.996  0.250E+02
-20.995  0.251E+02
-20.994  0.251E+02
-20.993  0.251E+02
-20.992  0.251E+02
-20.991  0.251E+02
-20.990  0.259E+02
-20.989  0.259E+02
-20.988  0.259E+02
-20.987  0.260E+02
-20.986  0.260E+02
-20.985  0.260E+02
-20.984  0.260E+02
-20.983  0.260E+02
-20.982  0.260E+02
-20.981  0.377E+02
-20.980  0.354E+02
-20.979  0.337E+02
-20.978  0.321E+02
-20.977  0.305E+02
-20.976  0.296E+02
-20.975  0.303E+02
-20.974  0.310E+02
-20.973  0.317E+02
-20.972  0.323E+02
-20.971  0.255E+02
-20.970  0.255E+02
-20.969  0.255E+02
-20.968  0.254E+02
-20.967  0.254E+02
-20.966  0.254E+02
-20.965  0.255E+02
-20.964  0.255E+02
-20.963  0.255E+02
-20.962  0.255E+02
-20.961  0.256E+02
-20.960  0.258E+02
-20.959  0.260E+02
-20.958  0.262E+02
-20.957  0.265E+02
-20.956  0.267E+02
-20.955  0.269E+02
-20.954  0.271E+02
-20.953  0.273E+02
-20.952  0.276E+02
-20.951  0.278E+02
-20.950  0.280E+02
-20.949  0.282E+02
-20.948  0.291E+02
-20.947  0.302E+02
-20.946  0.313E+02
-20.945  0.325E+02
-20.944  0.336E+02
-20.943  0.347E+02
-20.942  0.358E+02
-20.941  0.369E+02
-20.940  0.380E+02
-20.939  0.391E+02
-20.938  0.513E+02
-20.937  0.626E+02
-20.936  0.546E+02
-20.935  0.466E+02
-20.934  0.386E+02
-20.933  0.307E+02
-20.932  0.194E+02
-20.931  0.177E+02
-20.930  0.161E+02
-20.929  0.144E+02
-20.928  0.128E+02
-20.927  0.112E+02
-20.926  0.973E+01
-20.925  0.822E+01
-20.924  0.679E+01
-20.923  0.682E+01
-20.922  0.778E+01
-20.921  0.889E+01
-20.920  0.100E+02
-20.919  0.112E+02
-20.918  0.123E+02
-20.917  0.135E+02
-20.916  0.147E+02
-20.915  0.159E+02
-20.914  0.171E+02
-20.913  0.183E+02
-20.912  0.149E+02
-20.911  0.164E+02
-20.910  0.178E+02
-20.909  0.193E+02
-20.908  0.207E+02
-20.907  0.222E+02
-20.906  0.236E+02
-20.905  0.251E+02
-20.904  0.265E+02
-20.903  0.280E+02
-20.902  0.294E+02
-20.901  0.308E+02
-20.900  0.323E+02
-20.899  0.337E+02
-20.898  0.352E+02
-20.897  0.334E+02
-20.896  0.314E+02
-20.895  0.294E+02
-20.894  0.275E+02
-20.893  0.255E+02
-20.892  0.308E+02
-20.891  0.304E+02
-20.890  0.304E+02
-20.889  0.304E+02
-20.888  0.307E+02
-20.887  0.316E+02
-20.886  0.324E+02
-20.885  0.333E+02
-20.884  0.341E+02
-20.883  0.358E+02
-20.882  0.356E+02
-20.881  0.344E+02
-20.880  0.331E+02
-20.879  0.319E+02
-20.878  0.307E+02
-20.877  0.294E+02
-20.876  0.282E+02
-20.875  0.269E+02
-20.874  0.257E+02
-20.873  0.280E+02
-20.872  0.277E+02
-20.871  0.275E+02
-20.870  0.271E+02
-20.869  0.269E+02
-20.868  0.266E+02
-20.867  0.263E+02
-20.866  0.260E+02
-20.865  0.257E+02
-20.864  0.255E+02
-20.863  0.252E+02
-20.862  0.254E+02
-20.861  0.256E+02
-20.860  0.258E+02
-20.859  0.261E+02
-20.858  0.209E+02
-20.857  0.212E+02
-20.856  0.215E+02
-20.855  0.218E+02
-20.854  0.221E+02
-20.853  0.224E+02
-20.852  0.227E+02
-20.851  0.231E+02
-20.850  0.233E+02
-20.849  0.237E+02
-20.848  0.240E+02
-20.847  0.243E+02
-20.846  0.246E+02
-20.845  0.249E+02
-20.844  0.221E+02
-20.843  0.222E+02
-20.842  0.224E+02
-20.841  0.225E+02
-20.840  0.227E+02
-20.839  0.229E+02
-20.838  0.230E+02
-20.837  0.228E+02
-20.836  0.227E+02
-20.835  0.226E+02
-20.834  0.224E+02
-20.833  0.284E+02
-20.832  0.298E+02
-20.831  0.311E+02
-20.830  0.311E+02
-20.829  0.303E+02
-20.828  0.296E+02
-20.827  0.289E+02
-20.826  0.281E+02
-20.825  0.274E+02
-20.824  0.267E+02
-20.823  0.266E+02
-20.822  0.258E+02
-20.821  0.251E+02
-20.820  0.244E+02
-20.819  0.238E+02
-20.818  0.239E+02
-20.817  0.239E+02
-20.816  0.240E+02
-20.815  0.240E+02
-20.814  0.241E+02
-20.813  0.242E+02
-20.812  0.242E+02
-20.811  0.243E+02
-20.810  0.243E+02
-20.809  0.244E+02
-20.808  0.244E+02
-20.807  0.246E+02
-20.806  0.249E+02
-20.805  0.251E+02
-20.804  0.598E+02
-20.803  0.341E+02
-20.802  0.249E+02
-20.801  0.243E+02
-20.800  0.237E+02
-20.799  0.232E+02
-20.798  0.230E+02
-20.797  0.227E+02
-20.796  0.224E+02
-20.795  0.222E+02
-20.794  0.218E+02
-20.793  0.216E+02
-20.792  0.213E+02
-20.791  0.211E+02
-20.790  0.209E+02
-20.789  0.206E+02
-20.788  0.205E+02
-20.787  0.209E+02
-20.786  0.213E+02
-20.785  0.217E+02
-20.784  0.224E+02
-20.783  0.231E+02
-20.782  0.239E+02
-20.781  0.248E+02
-20.780  0.258E+02
-20.779  0.267E+02
-20.778  0.276E+02
-20.777  0.285E+02
-20.776  0.294E+02
-20.775  0.378E+02
-20.774  0.324E+02
-20.773  0.321E+02
-20.772  0.318E+02
-20.771  0.314E+02
-20.770  0.311E+02
-20.769  0.308E+02
-20.768  0.305E+02
-20.767  0.302E+02
-20.766  0.299E+02
-20.765  0.343E+02
-20.764  0.317E+02
-20.763  0.298E+02
-20.762  0.281E+02
-20.761  0.263E+02
-20.760  0.250E+02
-20.759  0.248E+02
-20.758  0.247E+02
-20.757  0.246E+02
-20.756  0.245E+02
-20.755  0.244E+02
-20.754  0.243E+02
-20.753  0.241E+02
-20.752  0.240E+02
-20.751  0.239E+02
-20.750  0.238E+02
-20.749  0.237E+02
-20.748  0.235E+02
-20.747  0.234E+02
-20.746  0.233E+02
-20.745  0.222E+02
-20.744  0.220E+02
-20.743  0.219E+02
-20.742  0.217E+02
-20.741  0.215E+02
-20.740  0.215E+02
-20.739  0.216E+02
-20.738  0.217E+02
-20.737  0.217E+02
-20.736  0.218E+02
-20.735  0.319E+02
-20.734  0.299E+02
-20.733  0.279E+02
-20.732  0.259E+02
-20.731  0.239E+02
-20.730  0.218E+02
-20.729  0.207E+02
-20.728  0.208E+02
-20.727  0.209E+02
-20.726  0.209E+02
-20.725  0.238E+02
-20.724  0.249E+02
-20.723  0.259E+02
-20.722  0.270E+02
-20.721  0.281E+02
-20.720  0.291E+02
-20.719  0.302E+02
-20.718  0.313E+02
-20.717  0.323E+02
-20.716  0.245E+02
-20.715  0.238E+02
-20.714  0.231E+02
-20.713  0.224E+02
-20.712  0.223E+02
-20.711  0.223E+02
-20.710  0.223E+02
-20.709  0.223E+02
-20.708  0.223E+02
-20.707  0.223E+02
-20.706  0.223E+02
-20.705  0.223E+02
-20.704  0.227E+02
-20.703  0.233E+02
-20.702  0.239E+02
-20.701  0.242E+02
-20.700  0.241E+02
-20.699  0.241E+02
-20.698  0.241E+02
-20.697  0.241E+02
-20.696  0.241E+02
-20.695  0.241E+02
-20.694  0.241E+02
-20.693  0.241E+02
-20.692  0.241E+02
-20.691  0.241E+02
-20.690  0.240E+02
-20.689  0.240E+02
-20.688  0.240E+02
-20.687  0.240E+02
-20.686  0.712E+02
-20.685  0.227E+02
-20.684  0.227E+02
-20.683  0.228E+02
-20.682  0.228E+02
-20.681  0.255E+02
-20.680  0.288E+02
-20.679  0.322E+02
-20.678  0.355E+02
-20.677  0.388E+02
-20.676  0.223E+02
-20.675  0.223E+02
-20.674  0.224E+02
-20.673  0.224E+02
-20.672  0.224E+02
-20.671  0.225E+02
-20.670  0.225E+02
-20.669  0.226E+02
-20.668  0.226E+02
-20.667  0.226E+02
-20.666  0.228E+02
-20.665  0.229E+02
-20.664  0.230E+02
-20.663  0.231E+02
-20.662  0.233E+02
-20.661  0.234E+02
-20.660  0.235E+02
-20.659  0.236E+02
-20.658  0.237E+02
-20.657  0.238E+02
-20.656  0.240E+02
-20.655  0.241E+02
-20.654  0.241E+02
-20.653  0.239E+02
-20.652  0.237E+02
-20.651  0.234E+02
-20.650  0.232E+02
-20.649  0.229E+02
-20.648  0.227E+02
-20.647  0.226E+02
-20.646  0.227E+02
-20.645  0.227E+02
-20.644  0.228E+02
-20.643  0.229E+02
-20.642  0.229E+02
-20.641  0.230E+02
-20.640  0.230E+02
-20.639  0.231E+02
-20.638  0.228E+02
-20.637  0.241E+02
-20.636  0.241E+02
-20.635  0.242E+02
-20.634  0.242E+02
-20.633  0.242E+02
-20.632  0.243E+02
-20.631  0.304E+02
-20.630  0.367E+02
-20.629  0.431E+02
-20.628  0.448E+02
-20.627  0.238E+02
-20.626  0.238E+02
-20.625  0.238E+02
-20.624  0.239E+02
-20.623  0.240E+02
-20.622  0.242E+02
-20.621  0.244E+02
-20.620  0.247E+02
-20.619  0.249E+02
-20.618  0.251E+02
-20.617  0.258E+02
-20.616  0.263E+02
-20.615  0.264E+02
-20.614  0.261E+02
-20.613  0.258E+02
-20.612  0.259E+02
-20.611  0.260E+02
-20.610  0.262E+02
-20.609  0.263E+02
-20.608  0.265E+02
-20.607  0.267E+02
-20.606  0.269E+02
-20.605  0.271E+02
-20.604  0.274E+02
-20.603  0.277E+02
-20.602  0.291E+02
-20.601  0.308E+02
-20.600  0.325E+02
-20.599  0.341E+02
-20.598  0.358E+02
-20.597  0.375E+02
-20.596  0.391E+02
-20.595  0.400E+02
-20.594  0.378E+02
-20.593  0.355E+02
-20.592  0.332E+02
-20.591  0.309E+02
-20.590  0.287E+02
-20.589  0.264E+02
-20.588  0.244E+02
-20.587  0.237E+02
-20.586  0.231E+02
-20.585  0.224E+02
-20.584  0.218E+02
-20.583  0.212E+02
-20.582  0.205E+02
-20.581  0.199E+02
-20.580  0.193E+02
-20.579  0.223E+02
-20.578  0.211E+02
-20.577  0.198E+02
-20.576  0.185E+02
-20.575  0.172E+02
-20.574  0.161E+02
-20.573  0.150E+02
-20.572  0.139E+02
-20.571  0.129E+02
-20.570  0.120E+02
-20.569  0.209E+02
-20.568  0.185E+02
-20.567  0.169E+02
-20.566  0.155E+02
-20.565  0.141E+02
-20.564  0.142E+02
-20.563  0.180E+02
-20.562  0.219E+02
-20.561  0.258E+02
-20.560  0.297E+02
-20.559  0.161E+02
-20.558  0.156E+02
-20.557  0.150E+02
-20.556  0.145E+02
-20.555  0.139E+02
-20.554  0.134E+02
-20.553  0.128E+02
-20.552  0.123E+02
-20.551  0.117E+02
-20.550  0.112E+02
-20.549  0.118E+02
-20.548  0.129E+02
-20.547  0.140E+02
-20.546  0.151E+02
-20.545  0.163E+02
-20.544  0.181E+02
-20.543  0.200E+02
-20.542  0.220E+02
-20.541  0.240E+02
-20.540  0.260E+02
-20.539  0.313E+02
-20.538  0.327E+02
-20.537  0.342E+02
-20.536  0.342E+02
-20.535  0.332E+02
-20.534  0.323E+02
-20.533  0.313E+02
-20.532  0.303E+02
-20.531  0.294E+02
-20.530  0.284E+02
-20.529  0.274E+02
-20.528  0.265E+02
-20.527  0.255E+02
-20.526  0.246E+02
-20.525  0.241E+02
-20.524  0.239E+02
-20.523  0.237E+02
-20.522  0.235E+02
-20.521  0.234E+02
-20.520  0.229E+02
-20.519  0.229E+02
-20.518  0.229E+02
-20.517  0.229E+02
-20.516  0.230E+02
-20.515  0.230E+02
-20.514  0.230E+02
-20.513  0.231E+02
-20.512  0.231E+02
-20.511  0.231E+02
-20.510  0.231E+02
-20.509  0.217E+02
-20.508  0.200E+02
-20.507  0.221E+02
-20.506  0.318E+02
-20.505  0.423E+02
-20.504  0.428E+02
-20.503  0.429E+02
-20.502  0.431E+02
-20.501  0.432E+02
-20.500  0.377E+02
-20.499  0.336E+02
-20.498  0.295E+02
-20.497  0.259E+02
-20.496  0.245E+02
-20.495  0.240E+02
-20.494  0.236E+02
-20.493  0.234E+02
-20.492  0.232E+02
-20.491  0.230E+02
-20.490  0.231E+02
-20.489  0.233E+02
-20.488  0.235E+02
-20.487  0.237E+02
-20.486  0.239E+02
-20.485  0.241E+02
-20.484  0.243E+02
-20.483  0.245E+02
-20.482  0.247E+02
-20.481  0.208E+02
-20.480  0.208E+02
-20.479  0.207E+02
-20.478  0.206E+02
-20.477  0.206E+02
-20.476  0.206E+02
-20.475  0.206E+02
-20.474  0.206E+02
-20.473  0.206E+02
-20.472  0.206E+02
-20.471  0.197E+02
-20.470  0.197E+02
-20.469  0.197E+02
-20.468  0.198E+02
-20.467  0.198E+02
-20.466  0.198E+02
-20.465  0.199E+02
-20.464  0.200E+02
-20.463  0.202E+02
-20.462  0.204E+02
-20.461  0.206E+02
-20.460  0.207E+02
-20.459  0.209E+02
-20.458  0.211E+02
-20.457  0.212E+02
-20.456  0.214E+02
-20.455  0.216E+02
-20.454  0.217E+02
-20.453  0.219E+02
-20.452  0.221E+02
-20.451  0.222E+02
-20.450  0.223E+02
-20.449  0.225E+02
-20.448  0.226E+02
-20.447  0.227E+02
-20.446  0.228E+02
-20.445  0.230E+02
-20.444  0.231E+02
-20.443  0.232E+02
-20.442  0.236E+02
-20.441  0.267E+02
-20.440  0.297E+02
-20.439  0.318E+02
-20.438  0.304E+02
-20.437  0.289E+02
-20.436  0.273E+02
-20.435  0.258E+02
-20.434  0.244E+02
-20.433  0.229E+02
-20.432  0.226E+02
-20.431  0.258E+02
-20.430  0.256E+02
-20.429  0.253E+02
-20.428  0.251E+02
-20.427  0.251E+02
-20.426  0.258E+02
-20.425  0.266E+02
-20.424  0.273E+02
-20.423  0.281E+02
-20.422  0.347E+02
-20.421  0.338E+02
-20.420  0.329E+02
-20.419  0.320E+02
-20.418  0.311E+02
-20.417  0.302E+02
-20.416  0.293E+02
-20.415  0.285E+02
-20.414  0.276E+02
-20.413  0.267E+02
-20.412  0.258E+02
-20.411  0.250E+02
-20.410  0.242E+02
-20.409  0.234E+02
-20.408  0.227E+02
-20.407  0.224E+02
-20.406  0.222E+02
-20.405  0.221E+02
-20.404  0.219E+02
-20.403  0.217E+02
-20.402  0.251E+02
-20.401  0.247E+02
-20.400  0.242E+02
-20.399  0.237E+02
-20.398  0.233E+02
-20.397  0.229E+02
-20.396  0.225E+02
-20.395  0.221E+02
-20.394  0.218E+02
-20.393  0.185E+02
-20.392  0.180E+02
-20.391  0.178E+02
-20.390  0.176E+02
-20.389  0.175E+02
-20.388  0.173E+02
-20.387  0.173E+02
-20.386  0.173E+02
-20.385  0.173E+02
-20.384  0.173E+02
-20.383  0.173E+02
-20.382  0.173E+02
-20.381  0.173E+02
-20.380  0.174E+02
-20.379  0.174E+02
-20.378  0.174E+02
-20.377  0.176E+02
-20.376  0.179E+02
-20.375  0.182E+02
-20.374  0.184E+02
-20.373  0.182E+02
-20.372  0.186E+02
-20.371  0.190E+02
-20.370  0.195E+02
-20.369  0.199E+02
-20.368  0.203E+02
-20.367  0.207E+02
-20.366  0.211E+02
-20.365  0.215E+02
-20.364  0.219E+02
-20.363  0.223E+02
-20.362  0.227E+02
-20.361  0.232E+02
-20.360  0.235E+02
-20.359  0.239E+02
-20.358  0.242E+02
-20.357  0.246E+02
-20.356  0.249E+02
-20.355  0.252E+02
-20.354  0.219E+02
-20.353  0.212E+02
-20.352  0.223E+02
-20.351  0.240E+02
-20.350  0.257E+02
-20.349  0.270E+02
-20.348  0.272E+02
-20.347  0.274E+02
-20.346  0.276E+02
-20.345  0.279E+02
-20.344  0.244E+02
-20.343  0.245E+02
-20.342  0.245E+02
-20.341  0.245E+02
-20.340  0.246E+02
-20.339  0.246E+02
-20.338  0.246E+02
-20.337  0.246E+02
-20.336  0.247E+02
-20.335  0.247E+02
-20.334  0.292E+02
-20.333  0.289E+02
-20.332  0.287E+02
-20.331  0.284E+02
-20.330  0.282E+02
-20.329  0.279E+02
-20.328  0.277E+02
-20.327  0.274E+02
-20.326  0.271E+02
-20.325  0.269E+02
-20.324  0.227E+02
-20.323  0.222E+02
-20.322  0.218E+02
-20.321  0.214E+02
-20.320  0.210E+02
-20.319  0.206E+02
-20.318  0.202E+02
-20.317  0.199E+02
-20.316  0.199E+02
-20.315  0.200E+02
-20.314  0.207E+02
-20.313  0.211E+02
-20.312  0.215E+02
-20.311  0.220E+02
-20.310  0.224E+02
-20.309  0.228E+02
-20.308  0.232E+02
-20.307  0.237E+02
-20.306  0.241E+02
-20.305  0.245E+02
-20.304  0.249E+02
-20.303  0.254E+02
-20.302  0.259E+02
-20.301  0.263E+02
-20.300  0.267E+02
-20.299  0.271E+02
-20.298  0.275E+02
-20.297  0.280E+02
-20.296  0.284E+02
-20.295  0.235E+02
-20.294  0.235E+02
-20.293  0.235E+02
-20.292  0.235E+02
-20.291  0.236E+02
-20.290  0.236E+02
-20.289  0.236E+02
-20.288  0.236E+02
-20.287  0.236E+02
-20.286  0.236E+02
-20.285  0.296E+02
-20.284  0.289E+02
-20.283  0.282E+02
-20.282  0.275E+02
-20.281  0.269E+02
-20.280  0.261E+02
-20.279  0.255E+02
-20.278  0.248E+02
-20.277  0.241E+02
-20.276  0.234E+02
-20.275  0.227E+02
-20.274  0.227E+02
-20.273  0.228E+02
-20.272  0.228E+02
-20.271  0.219E+02
-20.270  0.206E+02
-20.269  0.205E+02
-20.268  0.205E+02
-20.267  0.205E+02
-20.266  0.205E+02
-20.265  0.205E+02
-20.264  0.204E+02
-20.263  0.204E+02
-20.262  0.204E+02
-20.261  0.204E+02
-20.260  0.203E+02
-20.259  0.203E+02
-20.258  0.203E+02
-20.257  0.203E+02
-20.256  0.224E+02
-20.255  0.226E+02
-20.254  0.227E+02
-20.253  0.228E+02
-20.252  0.229E+02
-20.251  0.231E+02
-20.250  0.232E+02
-20.249  0.233E+02
-20.248  0.234E+02
-20.247  0.236E+02
-20.246  0.237E+02
-20.245  0.238E+02
-20.244  0.240E+02
-20.243  0.242E+02
-20.242  0.245E+02
-20.241  0.248E+02
-20.240  0.251E+02
-20.239  0.254E+02
-20.238  0.257E+02
-20.237  0.260E+02
-20.236  0.283E+02
-20.235  0.286E+02
-20.234  0.290E+02
-20.233  0.254E+02
-20.232  0.226E+02
-20.231  0.225E+02
-20.230  0.224E+02
-20.229  0.224E+02
-20.228  0.223E+02
-20.227  0.289E+02
-20.226  0.271E+02
-20.225  0.253E+02
-20.224  0.235E+02
-20.223  0.218E+02
-20.222  0.200E+02
-20.221  0.185E+02
-20.220  0.185E+02
-20.219  0.186E+02
-20.218  0.189E+02
-20.217  0.196E+02
-20.216  0.204E+02
-20.215  0.215E+02
-20.214  0.227E+02
-20.213  0.239E+02
-20.212  0.252E+02
-20.211  0.266E+02
-20.210  0.280E+02
-20.209  0.294E+02
-20.208  0.307E+02
-20.207  0.177E+02
-20.206  0.180E+02
-20.205  0.183E+02
-20.204  0.187E+02
-20.203  0.190E+02
-20.202  0.193E+02
-20.201  0.196E+02
-20.200  0.199E+02
-20.199  0.203E+02
-20.198  0.206E+02
-20.197  0.209E+02
-20.196  0.213E+02
-20.195  0.216E+02
-20.194  0.219E+02
-20.193  0.220E+02
-20.192  0.216E+02
-20.191  0.211E+02
-20.190  0.206E+02
-20.189  0.202E+02
-20.188  0.156E+02
-20.187  0.154E+02
-20.186  0.153E+02
-20.185  0.151E+02
-20.184  0.150E+02
-20.183  0.148E+02
-20.182  0.147E+02
-20.181  0.145E+02
-20.180  0.144E+02
-20.179  0.142E+02
-20.178  0.141E+02
-20.177  0.140E+02
-20.176  0.139E+02
-20.175  0.138E+02
-20.174  0.137E+02
-20.173  0.136E+02
-20.172  0.142E+02
-20.171  0.151E+02
-20.170  0.159E+02
-20.169  0.167E+02
-20.168  0.175E+02
-20.167  0.183E+02
-20.166  0.191E+02
-20.165  0.199E+02
-20.164  0.207E+02
-20.163  0.215E+02
-20.162  0.223E+02
-20.161  0.231E+02
-20.160  0.239E+02
-20.159  0.631E+02
-20.158  0.460E+02
-20.157  0.411E+02
-20.156  0.384E+02
-20.155  0.356E+02
-20.154  0.329E+02
-20.153  0.316E+02
-20.152  0.303E+02
-20.151  0.290E+02
-20.150  0.278E+02
-20.149  0.216E+02
-20.148  0.224E+02
-20.147  0.231E+02
-20.146  0.238E+02
-20.145  0.245E+02
-20.144  0.252E+02
-20.143  0.259E+02
-20.142  0.266E+02
-20.141  0.273E+02
-20.140  0.281E+02
-20.139  0.280E+02
-20.138  0.281E+02
-20.137  0.283E+02
-20.136  0.285E+02
-20.135  0.286E+02
-20.134  0.288E+02
-20.133  0.290E+02
-20.132  0.291E+02
-20.131  0.293E+02
-20.130  0.295E+02
-20.129  0.288E+02
-20.128  0.280E+02
-20.127  0.272E+02
-20.126  0.264E+02
-20.125  0.258E+02
-20.124  0.255E+02
-20.123  0.252E+02
-20.122  0.249E+02
-20.121  0.245E+02
-20.120  0.242E+02
-20.119  0.239E+02
-20.118  0.236E+02
-20.117  0.233E+02
-20.116  0.230E+02
-20.115  0.226E+02
-20.114  0.223E+02
-20.113  0.220E+02
-20.112  0.217E+02
-20.111  0.214E+02
-20.110  0.185E+02
-20.109  0.184E+02
-20.108  0.182E+02
-20.107  0.181E+02
-20.106  0.180E+02
-20.105  0.180E+02
-20.104  0.180E+02
-20.103  0.180E+02
-20.102  0.180E+02
-20.101  0.182E+02
-20.100  0.179E+02
-20.099  0.171E+02
-20.098  0.164E+02
-20.097  0.157E+02
-20.096  0.149E+02
-20.095  0.142E+02
-20.094  0.135E+02
-20.093  0.127E+02
-20.092  0.104E+02
-20.091  0.104E+02
-20.090  0.105E+02
-20.089  0.106E+02
-20.088  0.130E+02
-20.087  0.139E+02
-20.086  0.147E+02
-20.085  0.156E+02
-20.084  0.164E+02
-20.083  0.229E+02
-20.082  0.597E+02
-20.081  0.189E+02
-20.080  0.197E+02
-20.079  0.206E+02
-20.078  0.214E+02
-20.077  0.222E+02
-20.076  0.221E+02
-20.075  0.212E+02
-20.074  0.202E+02
-20.073  0.193E+02
-20.072  0.183E+02
-20.071  0.165E+02
-20.070  0.172E+02
-20.069  0.183E+02
-20.068  0.201E+02
-20.067  0.219E+02
-20.066  0.225E+02
-20.065  0.232E+02
-20.064  0.238E+02
-20.063  0.244E+02
-20.062  0.250E+02
-20.061  0.257E+02
-20.060  0.263E+02
-20.059  0.270E+02
-20.058  0.277E+02
-20.057  0.283E+02
-20.056  0.286E+02
-20.055  0.289E+02
-20.054  0.291E+02
-20.053  0.286E+02
-20.052  0.280E+02
-20.051  0.300E+02
-20.050  0.288E+02
-20.049  0.276E+02
-20.048  0.264E+02
-20.047  0.252E+02
-20.046  0.240E+02
-20.045  0.228E+02
-20.044  0.216E+02
-20.043  0.203E+02
-20.042  0.196E+02
-20.041  0.194E+02
-20.040  0.192E+02
-20.039  0.190E+02
-20.038  0.188E+02
-20.037  0.187E+02
-20.036  0.188E+02
-20.035  0.188E+02
-20.034  0.189E+02
-20.033  0.189E+02
-20.032  0.190E+02
-20.031  0.191E+02
-20.030  0.191E+02
-20.029  0.192E+02
-20.028  0.193E+02
-20.027  0.193E+02
-20.026  0.194E+02
-20.025  0.195E+02
-20.024  0.197E+02
-20.023  0.198E+02
-20.022  0.199E+02
-20.021  0.199E+02
-20.020  0.200E+02
-20.019  0.200E+02
-20.018  0.201E+02
-20.017  0.201E+02
-20.016  0.201E+02
-20.015  0.202E+02
-20.014  0.202E+02
-20.013  0.203E+02
-20.012  0.209E+02
-20.011  0.204E+02
-20.010  0.199E+02
-20.009  0.200E+02
-20.008  0.204E+02
-20.007  0.208E+02
-20.006  0.212E+02
-20.005  0.216E+02
-20.004  0.220E+02
-20.003  0.382E+02
-20.002  0.313E+02
-20.001  0.244E+02
-20.000  0.207E+02
-19.999  0.216E+02
-19.998  0.244E+02
-19.997  0.272E+02
-19.996  0.300E+02
-19.995  0.329E+02
-19.994  0.357E+02
-19.993  0.259E+02
-19.992  0.253E+02
-19.991  0.247E+02
-19.990  0.241E+02
-19.989  0.236E+02
-19.988  0.230E+02
-19.987  0.224E+02
-19.986  0.218E+02
-19.985  0.212E+02
-19.984  0.207E+02
-19.983  0.198E+02
-19.982  0.190E+02
-19.981  0.184E+02
-19.980  0.177E+02
-19.979  0.174E+02
-19.978  0.176E+02
-19.977  0.180E+02
-19.976  0.184E+02
-19.975  0.188E+02
-19.974  0.191E+02
-19.973  0.195E+02
-19.972  0.199E+02
-19.971  0.203E+02
-19.970  0.207E+02
-19.969  0.211E+02
-19.968  0.214E+02
-19.967  0.218E+02
-19.966  0.222E+02
-19.965  0.225E+02
-19.964  0.228E+02
-19.963  0.227E+02
-19.962  0.226E+02
-19.961  0.226E+02
-19.960  0.225E+02
-19.959  0.223E+02
-19.958  0.219E+02
-19.957  0.215E+02
-19.956  0.212E+02
-19.955  0.207E+02
-19.954  0.203E+02
-19.953  0.199E+02
-19.952  0.196E+02
-19.951  0.193E+02
-19.950  0.193E+02
-19.949  0.192E+02
-19.948  0.191E+02
-19.947  0.190E+02
-19.946  0.190E+02
-19.945  0.174E+02
-19.944  0.177E+02
-19.943  0.179E+02
-19.942  0.181E+02
-19.941  0.183E+02
-19.940  0.186E+02
-19.939  0.188E+02
-19.938  0.190E+02
-19.937  0.192E+02
-19.936  0.195E+02
-19.935  0.198E+02
-19.934  0.201E+02
-19.933  0.203E+02
-19.932  0.205E+02
-19.931  0.208E+02
-19.930  0.210E+02
-19.929  0.213E+02
-19.928  0.215E+02
-19.927  0.218E+02
-19.926  0.220E+02
-19.925  0.223E+02
-19.924  0.225E+02
-19.923  0.228E+02
-19.922  0.450E+02
-19.921  0.422E+02
-19.920  0.395E+02
-19.919  0.368E+02
-19.918  0.343E+02
-19.917  0.317E+02
-19.916  0.343E+02
-19.915  0.263E+02
-19.914  0.258E+02
-19.913  0.254E+02
-19.912  0.250E+02
-19.911  0.246E+02
-19.910  0.242E+02
-19.909  0.240E+02
-19.908  0.239E+02
-19.907  0.237E+02
-19.906  0.215E+02
-19.905  0.216E+02
-19.904  0.218E+02
-19.903  0.219E+02
-19.902  0.220E+02
-19.901  0.222E+02
-19.900  0.223E+02
-19.899  0.224E+02
-19.898  0.226E+02
-19.897  0.227E+02
-19.896  0.189E+02
-19.895  0.188E+02
-19.894  0.186E+02
-19.893  0.185E+02
-19.892  0.184E+02
-19.891  0.182E+02
-19.890  0.181E+02
-19.889  0.180E+02
-19.888  0.178E+02
-19.887  0.177E+02
-19.886  0.243E+02
-19.885  0.239E+02
-19.884  0.235E+02
-19.883  0.230E+02
-19.882  0.226E+02
-19.881  0.221E+02
-19.880  0.217E+02
-19.879  0.212E+02
-19.878  0.207E+02
-19.877  0.203E+02
-19.876  0.198E+02
-19.875  0.194E+02
-19.874  0.189E+02
-19.873  0.185E+02
-19.872  0.180E+02
-19.871  0.175E+02
-19.870  0.171E+02
-19.869  0.167E+02
-19.868  0.163E+02
-19.867  0.159E+02
-19.866  0.157E+02
-19.865  0.156E+02
-19.864  0.156E+02
-19.863  0.155E+02
-19.862  0.155E+02
-19.861  0.156E+02
-19.860  0.156E+02
-19.859  0.157E+02
-19.858  0.158E+02
-19.857  0.187E+02
-19.856  0.188E+02
-19.855  0.189E+02
-19.854  0.190E+02
-19.853  0.192E+02
-19.852  0.193E+02
-19.851  0.194E+02
-19.850  0.196E+02
-19.849  0.198E+02
-19.848  0.200E+02
-19.847  0.203E+02
-19.846  0.206E+02
-19.845  0.210E+02
-19.844  0.213E+02
-19.843  0.217E+02
-19.842  0.222E+02
-19.841  0.226E+02
-19.840  0.231E+02
-19.839  0.236E+02
-19.838  0.199E+02
-19.837  0.203E+02
-19.836  0.207E+02
-19.835  0.209E+02
-19.834  0.207E+02
-19.833  0.205E+02
-19.832  0.203E+02
-19.831  0.200E+02
-19.830  0.198E+02
-19.829  0.196E+02
-19.828  0.199E+02
-19.827  0.204E+02
-19.826  0.210E+02
-19.825  0.216E+02
-19.824  0.223E+02
-19.823  0.229E+02
-19.822  0.240E+02
-19.821  0.278E+02
-19.820  0.284E+02
-19.819  0.291E+02
-19.818  0.293E+02
-19.817  0.331E+02
-19.816  0.331E+02
-19.815  0.331E+02
-19.814  0.331E+02
-19.813  0.331E+02
-19.812  0.331E+02
-19.811  0.331E+02
-19.810  0.331E+02
-19.809  0.249E+02
-19.808  0.243E+02
-19.807  0.236E+02
-19.806  0.230E+02
-19.805  0.224E+02
-19.804  0.218E+02
-19.803  0.215E+02
-19.802  0.213E+02
-19.801  0.210E+02
-19.800  0.207E+02
-19.799  0.204E+02
-19.798  0.201E+02
-19.797  0.198E+02
-19.796  0.195E+02
-19.795  0.193E+02
-19.794  0.190E+02
-19.793  0.189E+02
-19.792  0.189E+02
-19.791  0.189E+02
-19.790  0.187E+02
-19.789  0.181E+02
-19.788  0.182E+02
-19.787  0.184E+02
-19.786  0.185E+02
-19.785  0.187E+02
-19.784  0.188E+02
-19.783  0.190E+02
-19.782  0.191E+02
-19.781  0.193E+02
-19.780  0.194E+02
-19.779  0.196E+02
-19.778  0.197E+02
-19.777  0.199E+02
-19.776  0.200E+02
-19.775  0.202E+02
-19.774  0.203E+02
-19.773  0.205E+02
-19.772  0.206E+02
-19.771  0.201E+02
-19.770  0.202E+02
-19.769  0.194E+02
-19.768  0.195E+02
-19.767  0.196E+02
-19.766  0.197E+02
-19.765  0.198E+02
-19.764  0.201E+02
-19.763  0.203E+02
-19.762  0.205E+02
-19.761  0.208E+02