# E (eV)  dos(E)    pdos(E)
 -21.776  0.000E+00  0.000E+00
 -21.775  0.293E+00  0.291E+00
 -21.774  0.255E+00  0.253E+00
 -21.773  0.279E+00  0.277E+00
 -21.772  0.304E+00  0.301E+00
 -21.771  0.328E+00  0.325E+00
 -21.770  0.301E+00  0.298E+00
 -21.769  0.280E+00  0.278E+00
 -21.768  0.289E+00  0.286E+00
 -21.767  0.297E+00  0.295E+00
 -21.766  0.306E+00  0.303E+00
 -21.765  0.315E+00  0.312E+00
 -21.764  0.296E+00  0.294E+00
 -21.763  0.294E+00  0.292E+00
 -21.762  0.292E+00  0.290E+00
 -21.761  0.290E+00  0.288E+00
 -21.760  0.294E+00  0.291E+00
 -21.759  0.298E+00  0.295E+00
 -21.758  0.302E+00  0.300E+00
 -21.757  0.307E+00  0.304E+00
 -21.756  0.311E+00  0.308E+00
 -21.755  0.303E+00  0.300E+00
 -21.754  0.293E+00  0.290E+00
 -21.753  0.294E+00  0.291E+00
 -21.752  0.294E+00  0.292E+00
 -21.751  0.295E+00  0.292E+00
 -21.750  0.296E+00  0.293E+00
 -21.749  0.297E+00  0.294E+00
 -21.748  0.299E+00  0.296E+00
 -21.747  0.302E+00  0.299E+00
 -21.746  0.304E+00  0.302E+00
 -21.745  0.307E+00  0.304E+00
 -21.744  0.310E+00  0.307E+00
 -21.743  0.299E+00  0.296E+00
 -21.742  0.297E+00  0.294E+00
 -21.741  0.295E+00  0.292E+00
 -21.740  0.294E+00  0.292E+00
 -21.739  0.295E+00  0.293E+00
 -21.738  0.296E+00  0.294E+00
 -21.737  0.297E+00  0.295E+00
 -21.736  0.298E+00  0.296E+00
 -21.735  0.299E+00  0.297E+00
 -21.734  0.300E+00  0.298E+00
 -21.733  0.302E+00  0.299E+00
 -21.732  0.304E+00  0.301E+00
 -21.731  0.305E+00  0.303E+00
 -21.730  0.304E+00  0.301E+00
 -21.729  0.298E+00  0.295E+00
 -21.728  0.297E+00  0.294E+00
 -21.727  0.297E+00  0.294E+00
 -21.726  0.296E+00  0.294E+00
 -21.725  0.296E+00  0.293E+00
 -21.724  0.296E+00  0.293E+00
 -21.723  0.296E+00  0.294E+00
 -21.722  0.297E+00  0.294E+00
 -21.721  0.298E+00  0.295E+00
 -21.720  0.299E+00  0.296E+00
 -21.719  0.300E+00  0.297E+00
 -21.718  0.301E+00  0.298E+00
 -21.717  0.302E+00  0.299E+00
 -21.716  0.303E+00  0.300E+00
 -21.715  0.304E+00  0.301E+00
 -21.714  0.305E+00  0.302E+00
 -21.713  0.300E+00  0.297E+00
 -21.712  0.299E+00  0.296E+00
 -21.711  0.297E+00  0.295E+00
 -21.710  0.297E+00  0.294E+00
 -21.709  0.297E+00  0.294E+00
 -21.708  0.297E+00  0.294E+00
 -21.707  0.297E+00  0.294E+00
 -21.706  0.297E+00  0.294E+00
 -21.705  0.297E+00  0.295E+00
 -21.704  0.298E+00  0.295E+00
 -21.703  0.298E+00  0.295E+00
 -21.702  0.299E+00  0.296E+00
 -21.701  0.300E+00  0.297E+00
 -21.700  0.300E+00  0.297E+00
 -21.699  0.301E+00  0.298E+00
 -21.698  0.302E+00  0.299E+00
 -21.697  0.303E+00  0.300E+00
 -21.696  0.303E+00  0.300E+00
 -21.695  0.304E+00  0.301E+00
 -21.694  0.300E+00  0.297E+00
 -21.693  0.298E+00  0.295E+00
 -21.692  0.298E+00  0.295E+00
 -21.691  0.298E+00  0.295E+00
 -21.690  0.297E+00  0.295E+00
 -21.689  0.297E+00  0.294E+00
 -21.688  0.297E+00  0.294E+00
 -21.687  0.297E+00  0.294E+00
 -21.686  0.298E+00  0.295E+00
 -21.685  0.298E+00  0.295E+00
 -21.684  0.298E+00  0.295E+00
 -21.683  0.299E+00  0.296E+00
 -21.682  0.299E+00  0.296E+00
 -21.681  0.299E+00  0.296E+00
 -21.680  0.299E+00  0.297E+00
 -21.679  0.300E+00  0.297E+00
 -21.678  0.301E+00  0.298E+00
 -21.677  0.301E+00  0.298E+00
 -21.676  0.302E+00  0.299E+00
 -21.675  0.303E+00  0.300E+00
 -21.674  0.303E+00  0.300E+00
 -21.673  0.301E+00  0.298E+00
 -21.672  0.300E+00  0.297E+00
 -21.671  0.299E+00  0.296E+00
 -21.670  0.298E+00  0.295E+00
 -21.669  0.298E+00  0.295E+00
 -21.668  0.298E+00  0.295E+00
 -21.667  0.298E+00  0.295E+00
 -21.666  0.298E+00  0.295E+00
 -21.665  0.298E+00  0.295E+00
 -21.664  0.298E+00  0.295E+00
 -21.663  0.298E+00  0.295E+00
 -21.662  0.298E+00  0.295E+00
 -21.661  0.298E+00  0.296E+00
 -21.660  0.299E+00  0.296E+00
 -21.659  0.299E+00  0.296E+00
 -21.658  0.299E+00  0.297E+00
 -21.657  0.300E+00  0.297E+00
 -21.656  0.300E+00  0.297E+00
 -21.655  0.300E+00  0.298E+00
 -21.654  0.301E+00  0.298E+00
 -21.653  0.301E+00  0.298E+00
 -21.652  0.302E+00  0.299E+00
 -21.651  0.302E+00  0.299E+00
 -21.650  0.303E+00  0.300E+00
 -21.649  0.301E+00  0.299E+00
 -21.648  0.299E+00  0.296E+00
 -21.647  0.299E+00  0.296E+00
 -21.646  0.299E+00  0.296E+00
 -21.645  0.298E+00  0.296E+00
 -21.644  0.298E+00  0.295E+00
 -21.643  0.298E+00  0.295E+00
 -21.642  0.298E+00  0.295E+00
 -21.641  0.298E+00  0.295E+00
 -21.640  0.298E+00  0.295E+00
 -21.639  0.298E+00  0.295E+00
 -21.638  0.298E+00  0.295E+00
 -21.637  0.298E+00  0.295E+00
 -21.636  0.298E+00  0.296E+00
 -21.635  0.299E+00  0.296E+00
 -21.634  0.299E+00  0.296E+00
 -21.633  0.299E+00  0.296E+00
 -21.632  0.299E+00  0.297E+00
 -21.631  0.300E+00  0.297E+00
 -21.630  0.300E+00  0.297E+00
 -21.629  0.300E+00  0.298E+00
 -21.628  0.301E+00  0.298E+00
 -21.627  0.301E+00  0.298E+00
 -21.626  0.301E+00  0.299E+00
 -21.625  0.302E+00  0.299E+00
 -21.624  0.302E+00  0.299E+00
 -21.623  0.302E+00  0.299E+00
 -21.622  0.300E+00  0.297E+00
 -21.621  0.300E+00  0.297E+00
 -21.620  0.299E+00  0.296E+00
 -21.619  0.299E+00  0.296E+00
 -21.618  0.298E+00  0.296E+00
 -21.617  0.298E+00  0.296E+00
 -21.616  0.298E+00  0.295E+00
 -21.615  0.298E+00  0.295E+00
 -21.614  0.298E+00  0.295E+00
 -21.613  0.298E+00  0.295E+00
 -21.612  0.298E+00  0.295E+00
 -21.611  0.298E+00  0.295E+00
 -21.610  0.298E+00  0.296E+00
 -21.609  0.299E+00  0.296E+00
 -21.608  0.299E+00  0.296E+00
 -21.607  0.299E+00  0.296E+00
 -21.606  0.299E+00  0.296E+00
 -21.605  0.299E+00  0.296E+00
 -21.604  0.299E+00  0.297E+00
 -21.603  0.300E+00  0.297E+00
 -21.602  0.300E+00  0.297E+00
 -21.601  0.300E+00  0.297E+00
 -21.600  0.300E+00  0.298E+00
 -21.599  0.301E+00  0.298E+00
 -21.598  0.301E+00  0.298E+00
 -21.597  0.301E+00  0.298E+00
 -21.596  0.302E+00  0.299E+00
 -21.595  0.302E+00  0.299E+00
 -21.594  0.302E+00  0.299E+00
 -21.593  0.300E+00  0.298E+00
 -21.592  0.300E+00  0.297E+00
 -21.591  0.299E+00  0.296E+00
 -21.590  0.299E+00  0.296E+00
 -21.589  0.299E+00  0.296E+00
 -21.588  0.298E+00  0.296E+00
 -21.587  0.298E+00  0.295E+00
 -21.586  0.298E+00  0.296E+00
 -21.585  0.298E+00  0.296E+00
 -21.584  0.298E+00  0.296E+00
 -21.583  0.299E+00  0.296E+00
 -21.582  0.299E+00  0.296E+00
 -21.581  0.299E+00  0.296E+00
 -21.580  0.299E+00  0.296E+00
 -21.579  0.299E+00  0.296E+00
 -21.578  0.299E+00  0.296E+00
 -21.577  0.299E+00  0.296E+00
 -21.576  0.299E+00  0.296E+00
 -21.575  0.299E+00  0.296E+00
 -21.574  0.300E+00  0.297E+00
 -21.573  0.300E+00  0.297E+00
 -21.572  0.300E+00  0.297E+00
 -21.571  0.300E+00  0.297E+00
 -21.570  0.300E+00  0.297E+00
 -21.569  0.300E+00  0.298E+00
 -21.568  0.301E+00  0.298E+00
 -21.567  0.301E+00  0.298E+00
 -21.566  0.301E+00  0.298E+00
 -21.565  0.301E+00  0.298E+00
 -21.564  0.302E+00  0.299E+00
 -21.563  0.302E+00  0.299E+00
 -21.562  0.301E+00  0.298E+00
 -21.561  0.300E+00  0.297E+00
 -21.560  0.300E+00  0.297E+00
 -21.559  0.299E+00  0.296E+00
 -21.558  0.299E+00  0.296E+00
 -21.557  0.299E+00  0.296E+00
 -21.556  0.299E+00  0.296E+00
 -21.555  0.299E+00  0.296E+00
 -21.554  0.299E+00  0.296E+00
 -21.553  0.299E+00  0.296E+00
 -21.552  0.299E+00  0.296E+00
 -21.551  0.299E+00  0.296E+00
 -21.550  0.299E+00  0.296E+00
 -21.549  0.299E+00  0.296E+00
 -21.548  0.299E+00  0.296E+00
 -21.547  0.299E+00  0.296E+00
 -21.546  0.299E+00  0.296E+00
 -21.545  0.299E+00  0.296E+00
 -21.544  0.299E+00  0.296E+00
 -21.543  0.299E+00  0.296E+00
 -21.542  0.299E+00  0.297E+00
 -21.541  0.300E+00  0.297E+00
 -21.540  0.300E+00  0.297E+00
 -21.539  0.300E+00  0.297E+00
 -21.538  0.300E+00  0.297E+00
 -21.537  0.300E+00  0.297E+00
 -21.536  0.300E+00  0.297E+00
 -21.535  0.301E+00  0.298E+00
 -21.534  0.301E+00  0.298E+00
 -21.533  0.301E+00  0.298E+00
 -21.532  0.301E+00  0.298E+00
 -21.531  0.301E+00  0.298E+00
 -21.530  0.302E+00  0.299E+00
 -21.529  0.302E+00  0.299E+00
 -21.528  0.301E+00  0.298E+00
 -21.527  0.300E+00  0.297E+00
 -21.526  0.300E+00  0.297E+00
 -21.525  0.300E+00  0.297E+00
 -21.524  0.299E+00  0.296E+00
 -21.523  0.299E+00  0.296E+00
 -21.522  0.299E+00  0.296E+00
 -21.521  0.299E+00  0.296E+00
 -21.520  0.299E+00  0.296E+00
 -21.519  0.299E+00  0.296E+00
 -21.518  0.299E+00  0.296E+00
 -21.517  0.299E+00  0.296E+00
 -21.516  0.299E+00  0.296E+00
 -21.515  0.299E+00  0.296E+00
 -21.514  0.299E+00  0.296E+00
 -21.513  0.299E+00  0.296E+00
 -21.512  0.299E+00  0.296E+00
 -21.511  0.299E+00  0.296E+00
 -21.510  0.299E+00  0.296E+00
 -21.509  0.299E+00  0.296E+00
 -21.508  0.299E+00  0.297E+00
 -21.507  0.300E+00  0.297E+00
 -21.506  0.300E+00  0.297E+00
 -21.505  0.300E+00  0.297E+00
 -21.504  0.300E+00  0.297E+00
 -21.503  0.300E+00  0.297E+00
 -21.502  0.300E+00  0.297E+00
 -21.501  0.300E+00  0.297E+00
 -21.500  0.300E+00  0.297E+00
 -21.499  0.301E+00  0.298E+00
 -21.498  0.301E+00  0.298E+00
 -21.497  0.301E+00  0.298E+00
 -21.496  0.301E+00  0.298E+00
 -21.495  0.301E+00  0.298E+00
 -21.494  0.301E+00  0.298E+00
 -21.493  0.302E+00  0.299E+00
 -21.492  0.302E+00  0.299E+00
 -21.491  0.301E+00  0.298E+00
 -21.490  0.300E+00  0.297E+00
 -21.489  0.300E+00  0.297E+00
 -21.488  0.300E+00  0.297E+00
 -21.487  0.299E+00  0.296E+00
 -21.486  0.299E+00  0.296E+00
 -21.485  0.299E+00  0.296E+00
 -21.484  0.299E+00  0.296E+00
 -21.483  0.299E+00  0.296E+00
 -21.482  0.299E+00  0.296E+00
 -21.481  0.299E+00  0.296E+00
 -21.480  0.299E+00  0.296E+00
 -21.479  0.299E+00  0.296E+00
 -21.478  0.299E+00  0.296E+00
 -21.477  0.299E+00  0.296E+00
 -21.476  0.299E+00  0.296E+00
 -21.475  0.299E+00  0.296E+00
 -21.474  0.299E+00  0.296E+00
 -21.473  0.299E+00  0.296E+00
 -21.472  0.299E+00  0.296E+00
 -21.471  0.299E+00  0.297E+00
 -21.470  0.300E+00  0.297E+00
 -21.469  0.300E+00  0.297E+00
 -21.468  0.300E+00  0.297E+00
 -21.467  0.300E+00  0.297E+00
 -21.466  0.300E+00  0.297E+00
 -21.465  0.300E+00  0.297E+00
 -21.464  0.300E+00  0.297E+00
 -21.463  0.300E+00  0.297E+00
 -21.462  0.300E+00  0.297E+00
 -21.461  0.301E+00  0.298E+00
 -21.460  0.301E+00  0.298E+00
 -21.459  0.301E+00  0.298E+00
 -21.458  0.301E+00  0.298E+00
 -21.457  0.301E+00  0.298E+00
 -21.456  0.301E+00  0.298E+00
 -21.455  0.301E+00  0.298E+00
 -21.454  0.302E+00  0.299E+00
 -21.453  0.302E+00  0.299E+00
 -21.452  0.301E+00  0.298E+00
 -21.451  0.300E+00  0.297E+00
 -21.450  0.300E+00  0.297E+00
 -21.449  0.300E+00  0.297E+00
 -21.448  0.300E+00  0.297E+00
 -21.447  0.300E+00  0.297E+00
 -21.446  0.299E+00  0.296E+00
 -21.445  0.299E+00  0.296E+00
 -21.444  0.299E+00  0.296E+00
 -21.443  0.299E+00  0.296E+00
 -21.442  0.299E+00  0.296E+00
 -21.441  0.299E+00  0.296E+00
 -21.440  0.299E+00  0.296E+00
 -21.439  0.299E+00  0.296E+00
 -21.438  0.299E+00  0.296E+00
 -21.437  0.299E+00  0.296E+00
 -21.436  0.299E+00  0.296E+00
 -21.435  0.299E+00  0.296E+00
 -21.434  0.300E+00  0.297E+00
 -21.433  0.300E+00  0.297E+00
 -21.432  0.300E+00  0.297E+00
 -21.431  0.300E+00  0.297E+00
 -21.430  0.300E+00  0.297E+00
 -21.429  0.300E+00  0.297E+00
 -21.428  0.300E+00  0.297E+00
 -21.427  0.300E+00  0.297E+00
 -21.426  0.300E+00  0.297E+00
 -21.425  0.300E+00  0.297E+00
 -21.424  0.300E+00  0.297E+00
 -21.423  0.300E+00  0.297E+00
 -21.422  0.300E+00  0.297E+00
 -21.421  0.301E+00  0.298E+00
 -21.420  0.301E+00  0.298E+00
 -21.419  0.301E+00  0.298E+00
 -21.418  0.301E+00  0.298E+00
 -21.417  0.301E+00  0.298E+00
 -21.416  0.301E+00  0.298E+00
 -21.415  0.301E+00  0.298E+00
 -21.414  0.301E+00  0.298E+00
 -21.413  0.302E+00  0.298E+00
 -21.412  0.302E+00  0.299E+00
 -21.411  0.301E+00  0.298E+00
 -21.410  0.301E+00  0.298E+00
 -21.409  0.300E+00  0.297E+00
 -21.408  0.300E+00  0.297E+00
 -21.407  0.300E+00  0.297E+00
 -21.406  0.300E+00  0.297E+00
 -21.405  0.300E+00  0.297E+00
 -21.404  0.300E+00  0.297E+00
 -21.403  0.300E+00  0.297E+00
 -21.402  0.300E+00  0.297E+00
 -21.401  0.300E+00  0.296E+00
 -21.400  0.300E+00  0.296E+00
 -21.399  0.300E+00  0.296E+00
 -21.398  0.300E+00  0.297E+00
 -21.397  0.300E+00  0.297E+00
 -21.396  0.300E+00  0.297E+00
 -21.395  0.300E+00  0.297E+00
 -21.394  0.300E+00  0.297E+00
 -21.393  0.300E+00  0.297E+00
 -21.392  0.300E+00  0.297E+00
 -21.391  0.300E+00  0.297E+00
 -21.390  0.300E+00  0.297E+00
 -21.389  0.300E+00  0.297E+00
 -21.388  0.300E+00  0.297E+00
 -21.387  0.300E+00  0.297E+00
 -21.386  0.300E+00  0.297E+00
 -21.385  0.300E+00  0.297E+00
 -21.384  0.300E+00  0.297E+00
 -21.383  0.300E+00  0.297E+00
 -21.382  0.300E+00  0.297E+00
 -21.381  0.300E+00  0.297E+00
 -21.380  0.301E+00  0.297E+00
 -21.379  0.301E+00  0.298E+00
 -21.378  0.301E+00  0.298E+00
 -21.377  0.301E+00  0.298E+00
 -21.376  0.301E+00  0.298E+00
 -21.375  0.301E+00  0.298E+00
 -21.374  0.301E+00  0.298E+00
 -21.373  0.301E+00  0.298E+00
 -21.372  0.301E+00  0.298E+00
 -21.371  0.301E+00  0.298E+00
 -21.370  0.301E+00  0.298E+00
 -21.369  0.302E+00  0.298E+00
 -21.368  0.302E+00  0.299E+00
 -21.367  0.302E+00  0.298E+00
 -21.366  0.301E+00  0.298E+00
 -21.365  0.301E+00  0.297E+00
 -21.364  0.300E+00  0.297E+00
 -21.363  0.300E+00  0.297E+00
 -21.362  0.300E+00  0.297E+00
 -21.361  0.300E+00  0.297E+00
 -21.360  0.300E+00  0.297E+00
 -21.359  0.300E+00  0.297E+00
 -21.358  0.300E+00  0.297E+00
 -21.357  0.300E+00  0.297E+00
 -21.356  0.300E+00  0.297E+00
 -21.355  0.300E+00  0.297E+00
 -21.354  0.300E+00  0.297E+00
 -21.353  0.300E+00  0.297E+00
 -21.352  0.300E+00  0.297E+00
 -21.351  0.300E+00  0.297E+00
 -21.350  0.300E+00  0.297E+00
 -21.349  0.300E+00  0.297E+00
 -21.348  0.300E+00  0.297E+00
 -21.347  0.300E+00  0.297E+00
 -21.346  0.300E+00  0.297E+00
 -21.345  0.300E+00  0.297E+00
 -21.344  0.300E+00  0.297E+00
 -21.343  0.300E+00  0.297E+00
 -21.342  0.300E+00  0.297E+00
 -21.341  0.300E+00  0.297E+00
 -21.340  0.300E+00  0.297E+00
 -21.339  0.300E+00  0.297E+00
 -21.338  0.300E+00  0.297E+00
 -21.337  0.300E+00  0.297E+00
 -21.336  0.301E+00  0.297E+00
 -21.335  0.301E+00  0.297E+00
 -21.334  0.301E+00  0.298E+00
 -21.333  0.301E+00  0.298E+00
 -21.332  0.301E+00  0.298E+00
 -21.331  0.301E+00  0.298E+00
 -21.330  0.301E+00  0.298E+00
 -21.329  0.301E+00  0.298E+00
 -21.328  0.301E+00  0.298E+00
 -21.327  0.301E+00  0.298E+00
 -21.326  0.301E+00  0.298E+00
 -21.325  0.301E+00  0.298E+00
 -21.324  0.302E+00  0.298E+00
 -21.323  0.302E+00  0.298E+00
 -21.322  0.302E+00  0.299E+00
 -21.321  0.302E+00  0.299E+00
 -21.320  0.301E+00  0.298E+00
 -21.319  0.301E+00  0.298E+00
 -21.318  0.301E+00  0.298E+00
 -21.317  0.300E+00  0.297E+00
 -21.316  0.300E+00  0.297E+00
 -21.315  0.300E+00  0.297E+00
 -21.314  0.300E+00  0.297E+00
 -21.313  0.300E+00  0.297E+00
 -21.312  0.300E+00  0.297E+00
 -21.311  0.300E+00  0.297E+00
 -21.310  0.300E+00  0.297E+00
 -21.309  0.300E+00  0.297E+00
 -21.308  0.300E+00  0.297E+00
 -21.307  0.300E+00  0.297E+00
 -21.306  0.300E+00  0.297E+00
 -21.305  0.300E+00  0.297E+00
 -21.304  0.300E+00  0.297E+00
 -21.303  0.300E+00  0.297E+00
 -21.302  0.300E+00  0.297E+00
 -21.301  0.300E+00  0.297E+00
 -21.300  0.300E+00  0.297E+00
 -21.299  0.300E+00  0.297E+00
 -21.298  0.300E+00  0.297E+00
 -21.297  0.300E+00  0.297E+00
 -21.296  0.300E+00  0.297E+00
 -21.295  0.300E+00  0.297E+00
 -21.294  0.300E+00  0.297E+00
 -21.293  0.300E+00  0.297E+00
 -21.292  0.300E+00  0.297E+00
 -21.291  0.300E+00  0.297E+00
 -21.290  0.301E+00  0.297E+00
 -21.289  0.301E+00  0.297E+00
 -21.288  0.301E+00  0.298E+00
 -21.287  0.301E+00  0.298E+00
 -21.286  0.301E+00  0.298E+00
 -21.285  0.301E+00  0.298E+00
 -21.284  0.301E+00  0.298E+00
 -21.283  0.301E+00  0.298E+00
 -21.282  0.301E+00  0.298E+00
 -21.281  0.301E+00  0.298E+00
 -21.280  0.301E+00  0.298E+00
 -21.279  0.301E+00  0.298E+00
 -21.278  0.301E+00  0.298E+00
 -21.277  0.301E+00  0.298E+00
 -21.276  0.302E+00  0.298E+00
 -21.275  0.302E+00  0.298E+00
 -21.274  0.302E+00  0.299E+00
 -21.273  0.302E+00  0.299E+00
 -21.272  0.302E+00  0.299E+00
 -21.271  0.301E+00  0.298E+00
 -21.270  0.301E+00  0.298E+00
 -21.269  0.301E+00  0.298E+00
 -21.268  0.301E+00  0.298E+00
 -21.267  0.301E+00  0.297E+00
 -21.266  0.300E+00  0.297E+00
 -21.265  0.300E+00  0.297E+00
 -21.264  0.300E+00  0.297E+00
 -21.263  0.300E+00  0.297E+00
 -21.262  0.300E+00  0.297E+00
 -21.261  0.300E+00  0.297E+00
 -21.260  0.300E+00  0.297E+00
 -21.259  0.300E+00  0.297E+00
 -21.258  0.300E+00  0.297E+00
 -21.257  0.300E+00  0.297E+00
 -21.256  0.300E+00  0.297E+00
 -21.255  0.300E+00  0.297E+00
 -21.254  0.300E+00  0.297E+00
 -21.253  0.300E+00  0.297E+00
 -21.252  0.300E+00  0.297E+00
 -21.251  0.300E+00  0.297E+00
 -21.250  0.300E+00  0.297E+00
 -21.249  0.300E+00  0.297E+00
 -21.248  0.300E+00  0.297E+00
 -21.247  0.300E+00  0.297E+00
 -21.246  0.300E+00  0.297E+00
 -21.245  0.300E+00  0.297E+00
 -21.244  0.301E+00  0.297E+00
 -21.243  0.301E+00  0.297E+00
 -21.242  0.301E+00  0.297E+00
 -21.241  0.301E+00  0.298E+00
 -21.240  0.301E+00  0.298E+00
 -21.239  0.301E+00  0.298E+00
 -21.238  0.301E+00  0.298E+00
 -21.237  0.301E+00  0.298E+00
 -21.236  0.301E+00  0.298E+00
 -21.235  0.301E+00  0.298E+00
 -21.234  0.301E+00  0.298E+00
 -21.233  0.301E+00  0.298E+00
 -21.232  0.301E+00  0.298E+00
 -21.231  0.301E+00  0.298E+00
 -21.230  0.301E+00  0.298E+00
 -21.229  0.301E+00  0.298E+00
 -21.228  0.301E+00  0.298E+00
 -21.227  0.301E+00  0.298E+00
 -21.226  0.302E+00  0.298E+00
 -21.225  0.302E+00  0.298E+00
 -21.224  0.302E+00  0.299E+00
 -21.223  0.302E+00  0.299E+00
 -21.222  0.302E+00  0.299E+00
 -21.221  0.302E+00  0.299E+00
 -21.220  0.302E+00  0.299E+00
 -21.219  0.301E+00  0.298E+00
 -21.218  0.301E+00  0.298E+00
 -21.217  0.301E+00  0.298E+00
 -21.216  0.301E+00  0.298E+00
 -21.215  0.301E+00  0.298E+00
 -21.214  0.301E+00  0.298E+00
 -21.213  0.301E+00  0.297E+00
 -21.212  0.301E+00  0.297E+00
 -21.211  0.301E+00  0.297E+00
 -21.210  0.300E+00  0.297E+00
 -21.209  0.300E+00  0.297E+00
 -21.208  0.300E+00  0.297E+00
 -21.207  0.300E+00  0.297E+00
 -21.206  0.300E+00  0.297E+00
 -21.205  0.300E+00  0.297E+00
 -21.204  0.300E+00  0.297E+00
 -21.203  0.300E+00  0.297E+00
 -21.202  0.300E+00  0.297E+00
 -21.201  0.300E+00  0.297E+00
 -21.200  0.300E+00  0.297E+00
 -21.199  0.300E+00  0.297E+00
 -21.198  0.301E+00  0.297E+00
 -21.197  0.301E+00  0.297E+00
 -21.196  0.301E+00  0.297E+00
 -21.195  0.301E+00  0.297E+00
 -21.194  0.301E+00  0.297E+00
 -21.193  0.301E+00  0.297E+00
 -21.192  0.301E+00  0.298E+00
 -21.191  0.301E+00  0.298E+00
 -21.190  0.301E+00  0.298E+00
 -21.189  0.301E+00  0.298E+00
 -21.188  0.301E+00  0.298E+00
 -21.187  0.301E+00  0.298E+00
 -21.186  0.301E+00  0.298E+00
 -21.185  0.301E+00  0.298E+00
 -21.184  0.301E+00  0.298E+00
 -21.183  0.301E+00  0.298E+00
 -21.182  0.301E+00  0.298E+00
 -21.181  0.301E+00  0.298E+00
 -21.180  0.301E+00  0.298E+00
 -21.179  0.301E+00  0.298E+00
 -21.178  0.301E+00  0.298E+00
 -21.177  0.301E+00  0.298E+00
 -21.176  0.302E+00  0.298E+00
 -21.175  0.302E+00  0.298E+00
 -21.174  0.302E+00  0.298E+00
 -21.173  0.302E+00  0.298E+00
 -21.172  0.302E+00  0.299E+00
 -21.171  0.302E+00  0.299E+00
 -21.170  0.302E+00  0.299E+00
 -21.169  0.302E+00  0.299E+00
 -21.168  0.302E+00  0.299E+00
 -21.167  0.302E+00  0.299E+00
 -21.166  0.302E+00  0.299E+00
 -21.165  0.302E+00  0.298E+00
 -21.164  0.301E+00  0.298E+00
 -21.163  0.301E+00  0.298E+00
 -21.162  0.301E+00  0.298E+00
 -21.161  0.301E+00  0.298E+00
 -21.160  0.301E+00  0.298E+00
 -21.159  0.301E+00  0.298E+00
 -21.158  0.301E+00  0.298E+00
 -21.157  0.301E+00  0.298E+00
 -21.156  0.301E+00  0.298E+00
 -21.155  0.301E+00  0.298E+00
 -21.154  0.301E+00  0.298E+00
 -21.153  0.301E+00  0.297E+00
 -21.152  0.301E+00  0.297E+00
 -21.151  0.301E+00  0.297E+00
 -21.150  0.301E+00  0.297E+00
 -21.149  0.301E+00  0.297E+00
 -21.148  0.301E+00  0.297E+00
 -21.147  0.301E+00  0.297E+00
 -21.146  0.301E+00  0.297E+00
 -21.145  0.301E+00  0.298E+00
 -21.144  0.301E+00  0.298E+00
 -21.143  0.301E+00  0.298E+00
 -21.142  0.301E+00  0.298E+00
 -21.141  0.301E+00  0.298E+00
 -21.140  0.301E+00  0.298E+00
 -21.139  0.301E+00  0.298E+00
 -21.138  0.301E+00  0.298E+00
 -21.137  0.301E+00  0.298E+00
 -21.136  0.301E+00  0.298E+00
 -21.135  0.301E+00  0.298E+00
 -21.134  0.301E+00  0.298E+00
 -21.133  0.301E+00  0.298E+00
 -21.132  0.301E+00  0.298E+00
 -21.131  0.301E+00  0.298E+00
 -21.130  0.301E+00  0.298E+00
 -21.129  0.301E+00  0.298E+00
 -21.128  0.301E+00  0.298E+00
 -21.127  0.301E+00  0.298E+00
 -21.126  0.301E+00  0.298E+00
 -21.125  0.301E+00  0.298E+00
 -21.124  0.301E+00  0.298E+00
 -21.123  0.302E+00  0.298E+00
 -21.122  0.302E+00  0.298E+00
 -21.121  0.302E+00  0.298E+00
 -21.120  0.302E+00  0.298E+00
 -21.119  0.302E+00  0.298E+00
 -21.118  0.302E+00  0.299E+00
 -21.117  0.302E+00  0.299E+00
 -21.116  0.302E+00  0.299E+00
 -21.115  0.302E+00  0.299E+00
 -21.114  0.302E+00  0.299E+00
 -21.113  0.302E+00  0.299E+00
 -21.112  0.302E+00  0.299E+00
 -21.111  0.302E+00  0.299E+00
 -21.110  0.302E+00  0.299E+00
 -21.109  0.302E+00  0.299E+00
 -21.108  0.302E+00  0.298E+00
 -21.107  0.301E+00  0.298E+00
 -21.106  0.301E+00  0.298E+00
 -21.105  0.301E+00  0.298E+00
 -21.104  0.301E+00  0.298E+00
 -21.103  0.301E+00  0.298E+00
 -21.102  0.301E+00  0.298E+00
 -21.101  0.301E+00  0.298E+00
 -21.100  0.301E+00  0.298E+00
 -21.099  0.301E+00  0.298E+00
 -21.098  0.301E+00  0.298E+00
 -21.097  0.301E+00  0.298E+00
 -21.096  0.301E+00  0.298E+00
 -21.095  0.301E+00  0.298E+00
 -21.094  0.301E+00  0.298E+00
 -21.093  0.301E+00  0.298E+00
 -21.092  0.301E+00  0.298E+00
 -21.091  0.301E+00  0.298E+00
 -21.090  0.301E+00  0.298E+00
 -21.089  0.301E+00  0.298E+00
 -21.088  0.301E+00  0.298E+00
 -21.087  0.301E+00  0.298E+00
 -21.086  0.301E+00  0.298E+00
 -21.085  0.301E+00  0.298E+00
 -21.084  0.301E+00  0.298E+00
 -21.083  0.301E+00  0.298E+00
 -21.082  0.301E+00  0.298E+00
 -21.081  0.301E+00  0.298E+00
 -21.080  0.301E+00  0.298E+00
 -21.079  0.301E+00  0.298E+00
 -21.078  0.301E+00  0.298E+00
 -21.077  0.301E+00  0.298E+00
 -21.076  0.301E+00  0.298E+00
 -21.075  0.301E+00  0.298E+00
 -21.074  0.301E+00  0.298E+00
 -21.073  0.301E+00  0.298E+00
 -21.072  0.301E+00  0.298E+00
 -21.071  0.301E+00  0.298E+00
 -21.070  0.302E+00  0.298E+00
 -21.069  0.302E+00  0.298E+00
 -21.068  0.302E+00  0.298E+00
 -21.067  0.302E+00  0.298E+00
 -21.066  0.302E+00  0.298E+00
 -21.065  0.302E+00  0.298E+00
 -21.064  0.302E+00  0.298E+00
 -21.063  0.302E+00  0.299E+00
 -21.062  0.302E+00  0.299E+00
 -21.061  0.302E+00  0.299E+00
 -21.060  0.302E+00  0.299E+00
 -21.059  0.302E+00  0.299E+00
 -21.058  0.302E+00  0.299E+00
 -21.057  0.302E+00  0.299E+00
 -21.056  0.302E+00  0.299E+00
 -21.055  0.302E+00  0.299E+00
 -21.054  0.302E+00  0.299E+00
 -21.053  0.302E+00  0.299E+00
 -21.052  0.302E+00  0.299E+00
 -21.051  0.302E+00  0.299E+00
 -21.050  0.302E+00  0.299E+00
 -21.049  0.302E+00  0.298E+00
 -21.048  0.302E+00  0.298E+00
 -21.047  0.302E+00  0.298E+00
 -21.046  0.302E+00  0.298E+00
 -21.045  0.301E+00  0.298E+00
 -21.044  0.301E+00  0.298E+00
 -21.043  0.301E+00  0.298E+00
 -21.042  0.301E+00  0.298E+00
 -21.041  0.301E+00  0.298E+00
 -21.040  0.301E+00  0.298E+00
 -21.039  0.301E+00  0.298E+00
 -21.038  0.301E+00  0.298E+00
 -21.037  0.301E+00  0.298E+00
 -21.036  0.301E+00  0.298E+00
 -21.035  0.301E+00  0.298E+00
 -21.034  0.301E+00  0.298E+00
 -21.033  0.301E+00  0.298E+00
 -21.032  0.301E+00  0.298E+00
 -21.031  0.301E+00  0.298E+00
 -21.030  0.301E+00  0.298E+00
 -21.029  0.301E+00  0.298E+00
 -21.028  0.301E+00  0.298E+00
 -21.027  0.301E+00  0.298E+00
 -21.026  0.301E+00  0.298E+00
 -21.025  0.301E+00  0.298E+00
 -21.024  0.301E+00  0.298E+00
 -21.023  0.301E+00  0.298E+00
 -21.022  0.301E+00  0.298E+00
 -21.021  0.301E+00  0.298E+00
 -21.020  0.301E+00  0.298E+00
 -21.019  0.301E+00  0.298E+00
 -21.018  0.301E+00  0.298E+00
 -21.017  0.301E+00  0.298E+00
 -21.016  0.302E+00  0.298E+00
 -21.015  0.302E+00  0.298E+00
 -21.014  0.302E+00  0.298E+00
 -21.013  0.302E+00  0.298E+00
 -21.012  0.302E+00  0.298E+00
 -21.011  0.302E+00  0.298E+00
 -21.010  0.302E+00  0.298E+00
 -21.009  0.302E+00  0.298E+00
 -21.008  0.302E+00  0.298E+00
 -21.007  0.302E+00  0.298E+00
 -21.006  0.302E+00  0.299E+00
 -21.005  0.302E+00  0.299E+00
 -21.004  0.302E+00  0.299E+00
 -21.003  0.302E+00  0.299E+00
 -21.002  0.302E+00  0.299E+00
 -21.001  0.302E+00  0.299E+00
 -21.000  0.302E+00  0.299E+00
 -20.999  0.302E+00  0.299E+00
 -20.998  0.302E+00  0.299E+00
 -20.997  0.302E+00  0.299E+00
 -20.996  0.302E+00  0.299E+00
 -20.995  0.302E+00  0.299E+00
 -20.994  0.302E+00  0.299E+00
 -20.993  0.302E+00  0.299E+00
 -20.992  0.303E+00  0.299E+00
 -20.991  0.303E+00  0.299E+00
 -20.990  0.303E+00  0.299E+00
 -20.989  0.302E+00  0.299E+00
 -20.988  0.302E+00  0.299E+00
 -20.987  0.302E+00  0.299E+00
 -20.986  0.302E+00  0.298E+00
 -20.985  0.302E+00  0.298E+00
 -20.984  0.302E+00  0.298E+00
 -20.983  0.302E+00  0.298E+00
 -20.982  0.302E+00  0.298E+00
 -20.981  0.302E+00  0.298E+00
 -20.980  0.302E+00  0.298E+00
 -20.979  0.302E+00  0.298E+00
 -20.978  0.302E+00  0.298E+00
 -20.977  0.302E+00  0.298E+00
 -20.976  0.302E+00  0.298E+00
 -20.975  0.301E+00  0.298E+00
 -20.974  0.301E+00  0.298E+00
 -20.973  0.301E+00  0.298E+00
 -20.972  0.301E+00  0.298E+00
 -20.971  0.301E+00  0.298E+00
 -20.970  0.301E+00  0.298E+00
 -20.969  0.301E+00  0.298E+00
 -20.968  0.301E+00  0.298E+00
 -20.967  0.301E+00  0.298E+00
 -20.966  0.302E+00  0.298E+00
 -20.965  0.302E+00  0.298E+00
 -20.964  0.302E+00  0.298E+00
 -20.963  0.302E+00  0.298E+00
 -20.962  0.302E+00  0.298E+00
 -20.961  0.302E+00  0.298E+00
 -20.960  0.302E+00  0.298E+00
 -20.959  0.302E+00  0.298E+00
 -20.958  0.302E+00  0.298E+00
 -20.957  0.302E+00  0.298E+00
 -20.956  0.302E+00  0.298E+00
 -20.955  0.302E+00  0.298E+00
 -20.954  0.302E+00  0.298E+00
 -20.953  0.302E+00  0.298E+00
 -20.952  0.302E+00  0.298E+00
 -20.951  0.302E+00  0.298E+00
 -20.950  0.302E+00  0.298E+00
 -20.949  0.302E+00  0.299E+00
 -20.948  0.302E+00  0.299E+00
 -20.947  0.302E+00  0.299E+00
 -20.946  0.302E+00  0.299E+00
 -20.945  0.302E+00  0.299E+00
 -20.944  0.302E+00  0.299E+00
 -20.943  0.302E+00  0.299E+00
 -20.942  0.302E+00  0.299E+00
 -20.941  0.302E+00  0.299E+00
 -20.940  0.302E+00  0.299E+00
 -20.939  0.302E+00  0.299E+00
 -20.938  0.302E+00  0.299E+00
 -20.937  0.302E+00  0.299E+00
 -20.936  0.302E+00  0.299E+00
 -20.935  0.302E+00  0.299E+00
 -20.934  0.302E+00  0.299E+00
 -20.933  0.303E+00  0.299E+00
 -20.932  0.303E+00  0.299E+00
 -20.931  0.303E+00  0.299E+00
 -20.930  0.303E+00  0.299E+00
 -20.929  0.303E+00  0.299E+00
 -20.928  0.303E+00  0.299E+00
 -20.927  0.303E+00  0.299E+00
 -20.926  0.303E+00  0.299E+00
 -20.925  0.303E+00  0.299E+00
 -20.924  0.302E+00  0.299E+00
 -20.923  0.302E+00  0.299E+00
 -20.922  0.302E+00  0.299E+00
 -20.921  0.302E+00  0.299E+00
 -20.920  0.302E+00  0.299E+00
 -20.919  0.302E+00  0.299E+00
 -20.918  0.302E+00  0.298E+00
 -20.917  0.302E+00  0.298E+00
 -20.916  0.302E+00  0.298E+00
 -20.915  0.302E+00  0.298E+00
 -20.914  0.302E+00  0.298E+00
 -20.913  0.302E+00  0.298E+00
 -20.912  0.302E+00  0.298E+00
 -20.911  0.302E+00  0.298E+00
 -20.910  0.302E+00  0.298E+00
 -20.909  0.302E+00  0.298E+00
 -20.908  0.302E+00  0.298E+00
 -20.907  0.302E+00  0.298E+00
 -20.906  0.302E+00  0.298E+00
 -20.905  0.302E+00  0.298E+00
 -20.904  0.302E+00  0.298E+00
 -20.903  0.302E+00  0.298E+00
 -20.902  0.302E+00  0.298E+00
 -20.901  0.302E+00  0.298E+00
 -20.900  0.302E+00  0.298E+00
 -20.899  0.302E+00  0.298E+00
 -20.898  0.302E+00  0.298E+00
 -20.897  0.302E+00  0.298E+00
 -20.896  0.302E+00  0.298E+00
 -20.895  0.302E+00  0.298E+00
 -20.894  0.302E+00  0.298E+00
 -20.893  0.302E+00  0.299E+00
 -20.892  0.302E+00  0.299E+00
 -20.891  0.302E+00  0.299E+00
 -20.890  0.302E+00  0.299E+00
 -20.889  0.302E+00  0.299E+00
 -20.888  0.302E+00  0.299E+00
 -20.887  0.302E+00  0.299E+00
 -20.886  0.302E+00  0.299E+00
 -20.885  0.302E+00  0.299E+00
 -20.884  0.302E+00  0.299E+00
 -20.883  0.302E+00  0.299E+00
 -20.882  0.302E+00  0.299E+00
 -20.881  0.302E+00  0.299E+00
 -20.880  0.302E+00  0.299E+00
 -20.879  0.302E+00  0.299E+00
 -20.878  0.302E+00  0.299E+00
 -20.877  0.302E+00  0.299E+00
 -20.876  0.302E+00  0.299E+00
 -20.875  0.302E+00  0.299E+00
 -20.874  0.302E+00  0.299E+00
 -20.873  0.303E+00  0.299E+00
 -20.872  0.303E+00  0.299E+00
 -20.871  0.303E+00  0.299E+00
 -20.870  0.303E+00  0.299E+00
 -20.869  0.303E+00  0.299E+00
 -20.868  0.303E+00  0.299E+00
 -20.867  0.303E+00  0.299E+00
 -20.866  0.303E+00  0.299E+00
 -20.865  0.303E+00  0.299E+00
 -20.864  0.303E+00  0.299E+00
 -20.863  0.303E+00  0.299E+00
 -20.862  0.303E+00  0.300E+00
 -20.861  0.303E+00  0.300E+00
 -20.860  0.303E+00  0.300E+00
 -20.859  0.303E+00  0.299E+00
 -20.858  0.303E+00  0.299E+00
 -20.857  0.303E+00  0.299E+00
 -20.856  0.302E+00  0.299E+00
 -20.855  0.302E+00  0.299E+00
 -20.854  0.302E+00  0.299E+00
 -20.853  0.302E+00  0.299E+00
 -20.852  0.302E+00  0.299E+00
 -20.851  0.302E+00  0.299E+00
 -20.850  0.302E+00  0.299E+00
 -20.849  0.302E+00  0.299E+00
 -20.848  0.302E+00  0.299E+00
 -20.847  0.302E+00  0.299E+00
 -20.846  0.302E+00  0.299E+00
 -20.845  0.302E+00  0.299E+00
 -20.844  0.302E+00  0.299E+00
 -20.843  0.302E+00  0.299E+00
 -20.842  0.302E+00  0.299E+00
 -20.841  0.302E+00  0.299E+00
 -20.840  0.302E+00  0.299E+00
 -20.839  0.302E+00  0.299E+00
 -20.838  0.302E+00  0.299E+00
 -20.837  0.302E+00  0.299E+00
 -20.836  0.302E+00  0.299E+00
 -20.835  0.302E+00  0.299E+00
 -20.834  0.302E+00  0.299E+00
 -20.833  0.302E+00  0.299E+00
 -20.832  0.302E+00  0.299E+00
 -20.831  0.302E+00  0.299E+00
 -20.830  0.302E+00  0.299E+00
 -20.829  0.302E+00  0.299E+00
 -20.828  0.302E+00  0.299E+00
 -20.827  0.302E+00  0.299E+00
 -20.826  0.302E+00  0.299E+00
 -20.825  0.302E+00  0.299E+00
 -20.824  0.302E+00  0.299E+00
 -20.823  0.302E+00  0.299E+00
 -20.822  0.302E+00  0.299E+00
 -20.821  0.302E+00  0.299E+00
 -20.820  0.302E+00  0.299E+00
 -20.819  0.302E+00  0.299E+00
 -20.818  0.302E+00  0.299E+00
 -20.817  0.302E+00  0.299E+00
 -20.816  0.302E+00  0.299E+00
 -20.815  0.302E+00  0.299E+00
 -20.814  0.303E+00  0.299E+00
 -20.813  0.303E+00  0.299E+00
 -20.812  0.303E+00  0.299E+00
 -20.811  0.303E+00  0.299E+00