#E		dos(E)		pdos(E)
-21.822		0.000E+00	0.000E+00
-21.8210	1.460E-01	1.450E-01
-21.8200	1.270E-01	1.260E-01
-21.8190	1.390E-01	1.380E-01
-21.8180	1.510E-01	1.500E-01
-21.8170	1.640E-01	1.620E-01
-21.8160	1.500E-01	1.490E-01
-21.8150	1.400E-01	1.390E-01
-21.8140	1.440E-01	1.430E-01
-21.8130	1.480E-01	1.470E-01
-21.8120	1.530E-01	1.510E-01
-21.8110	1.570E-01	1.550E-01
-21.8100	1.480E-01	1.470E-01
-21.8090	1.470E-01	1.460E-01
-21.8080	1.460E-01	1.450E-01
-21.8070	1.450E-01	1.440E-01
-21.8060	1.460E-01	1.450E-01
-21.8050	1.490E-01	1.470E-01
-21.8040	1.510E-01	1.490E-01
-21.8030	1.530E-01	1.520E-01
-21.8020	1.550E-01	1.540E-01
-21.8010	1.510E-01	1.500E-01
-21.8000	1.460E-01	1.450E-01
-21.7990	1.460E-01	1.450E-01
-21.7980	1.470E-01	1.450E-01
-21.7970	1.470E-01	1.460E-01
-21.7960	1.480E-01	1.460E-01
-21.7950	1.480E-01	1.470E-01
-21.7940	1.490E-01	1.480E-01
-21.7930	1.500E-01	1.490E-01
-21.7920	1.520E-01	1.500E-01
-21.7910	1.530E-01	1.520E-01
-21.7900	1.540E-01	1.530E-01
-21.7890	1.490E-01	1.480E-01
-21.7880	1.480E-01	1.470E-01
-21.7870	1.470E-01	1.460E-01
-21.7860	1.470E-01	1.450E-01
-21.7850	1.470E-01	1.460E-01
-21.7840	1.480E-01	1.460E-01
-21.7830	1.480E-01	1.470E-01
-21.7820	1.490E-01	1.470E-01
-21.7810	1.490E-01	1.480E-01
-21.7800	1.500E-01	1.480E-01
-21.7790	1.510E-01	1.490E-01
-21.7780	1.510E-01	1.500E-01
-21.7770	1.520E-01	1.510E-01
-21.7760	1.520E-01	1.500E-01
-21.7750	1.490E-01	1.480E-01
-21.7740	1.480E-01	1.470E-01
-21.7730	1.480E-01	1.470E-01
-21.7720	1.480E-01	1.470E-01
-21.7710	1.480E-01	1.460E-01
-21.7700	1.480E-01	1.460E-01
-21.7690	1.480E-01	1.460E-01
-21.7680	1.480E-01	1.470E-01
-21.7670	1.490E-01	1.470E-01
-21.7660	1.490E-01	1.480E-01
-21.7650	1.500E-01	1.480E-01
-21.7640	1.500E-01	1.490E-01
-21.7630	1.500E-01	1.490E-01
-21.7620	1.510E-01	1.500E-01
-21.7610	1.510E-01	1.500E-01
-21.7600	1.520E-01	1.510E-01
-21.7590	1.500E-01	1.480E-01
-21.7580	1.490E-01	1.480E-01
-21.7570	1.480E-01	1.470E-01
-21.7560	1.480E-01	1.470E-01
-21.7550	1.480E-01	1.470E-01
-21.7540	1.480E-01	1.470E-01
-21.7530	1.480E-01	1.470E-01
-21.7520	1.480E-01	1.470E-01
-21.7510	1.480E-01	1.470E-01
-21.7500	1.480E-01	1.470E-01
-21.7490	1.490E-01	1.470E-01
-21.7480	1.490E-01	1.480E-01
-21.7470	1.490E-01	1.480E-01
-21.7460	1.500E-01	1.480E-01
-21.7450	1.500E-01	1.490E-01
-21.7440	1.500E-01	1.490E-01
-21.7430	1.510E-01	1.490E-01
-21.7420	1.510E-01	1.500E-01
-21.7410	1.520E-01	1.500E-01
-21.7400	1.500E-01	1.490E-01
-21.7390	1.490E-01	1.470E-01
-21.7380	1.490E-01	1.470E-01
-21.7370	1.490E-01	1.470E-01
-21.7360	1.480E-01	1.470E-01
-21.7350	1.480E-01	1.470E-01
-21.7340	1.480E-01	1.470E-01
-21.7330	1.480E-01	1.470E-01
-21.7320	1.480E-01	1.470E-01
-21.7310	1.490E-01	1.470E-01
-21.7300	1.490E-01	1.470E-01
-21.7290	1.490E-01	1.480E-01
-21.7280	1.490E-01	1.480E-01
-21.7270	1.490E-01	1.480E-01
-21.7260	1.490E-01	1.480E-01
-21.7250	1.500E-01	1.480E-01
-21.7240	1.500E-01	1.490E-01
-21.7230	1.500E-01	1.490E-01
-21.7220	1.510E-01	1.490E-01
-21.7210	1.510E-01	1.490E-01
-21.7200	1.510E-01	1.500E-01
-21.7190	1.500E-01	1.490E-01
-21.7180	1.500E-01	1.480E-01
-21.7170	1.490E-01	1.480E-01
-21.7160	1.490E-01	1.470E-01
-21.7150	1.480E-01	1.470E-01
-21.7140	1.480E-01	1.470E-01
-21.7130	1.480E-01	1.470E-01
-21.7120	1.480E-01	1.470E-01
-21.7110	1.480E-01	1.470E-01
-21.7100	1.480E-01	1.470E-01
-21.7090	1.480E-01	1.470E-01
-21.7080	1.490E-01	1.470E-01
-21.7070	1.490E-01	1.470E-01
-21.7060	1.490E-01	1.480E-01
-21.7050	1.490E-01	1.480E-01
-21.7040	1.490E-01	1.480E-01
-21.7030	1.490E-01	1.480E-01
-21.7020	1.500E-01	1.480E-01
-21.7010	1.500E-01	1.480E-01
-21.7000	1.500E-01	1.490E-01
-21.6990	1.500E-01	1.490E-01
-21.6980	1.500E-01	1.490E-01
-21.6970	1.510E-01	1.490E-01
-21.6960	1.510E-01	1.490E-01
-21.6950	1.510E-01	1.490E-01
-21.6940	1.500E-01	1.480E-01
-21.6930	1.490E-01	1.480E-01
-21.6920	1.490E-01	1.480E-01
-21.6910	1.490E-01	1.470E-01
-21.6900	1.490E-01	1.470E-01
-21.6890	1.490E-01	1.470E-01
-21.6880	1.490E-01	1.470E-01
-21.6870	1.490E-01	1.470E-01
-21.6860	1.490E-01	1.470E-01
-21.6850	1.490E-01	1.470E-01
-21.6840	1.490E-01	1.470E-01
-21.6830	1.490E-01	1.470E-01
-21.6820	1.490E-01	1.470E-01
-21.6810	1.490E-01	1.480E-01
-21.6800	1.490E-01	1.480E-01
-21.6790	1.490E-01	1.480E-01
-21.6780	1.490E-01	1.480E-01
-21.6770	1.500E-01	1.480E-01
-21.6760	1.500E-01	1.480E-01
-21.6750	1.500E-01	1.480E-01
-21.6740	1.500E-01	1.490E-01
-21.6730	1.500E-01	1.490E-01
-21.6720	1.500E-01	1.490E-01
-21.6710	1.500E-01	1.490E-01
-21.6700	1.510E-01	1.490E-01
-21.6690	1.510E-01	1.490E-01
-21.6680	1.500E-01	1.480E-01
-21.6670	1.500E-01	1.480E-01
-21.6660	1.490E-01	1.480E-01
-21.6650	1.490E-01	1.480E-01
-21.6640	1.490E-01	1.470E-01
-21.6630	1.490E-01	1.470E-01
-21.6620	1.490E-01	1.470E-01
-21.6610	1.490E-01	1.470E-01
-21.6600	1.490E-01	1.470E-01
-21.6590	1.490E-01	1.470E-01
-21.6580	1.490E-01	1.470E-01
-21.6570	1.490E-01	1.470E-01
-21.6560	1.490E-01	1.470E-01
-21.6550	1.490E-01	1.480E-01
-21.6540	1.490E-01	1.480E-01
-21.6530	1.490E-01	1.480E-01
-21.6520	1.490E-01	1.480E-01
-21.6510	1.490E-01	1.480E-01
-21.6500	1.490E-01	1.480E-01
-21.6490	1.490E-01	1.480E-01
-21.6480	1.500E-01	1.480E-01
-21.6470	1.500E-01	1.480E-01
-21.6460	1.500E-01	1.480E-01
-21.6450	1.500E-01	1.490E-01
-21.6440	1.500E-01	1.490E-01
-21.6430	1.500E-01	1.490E-01
-21.6420	1.500E-01	1.490E-01
-21.6410	1.510E-01	1.490E-01
-21.6400	1.510E-01	1.490E-01
-21.6390	1.500E-01	1.490E-01
-21.6380	1.490E-01	1.480E-01
-21.6370	1.490E-01	1.480E-01
-21.6360	1.490E-01	1.480E-01
-21.6350	1.490E-01	1.480E-01
-21.6340	1.490E-01	1.480E-01
-21.6330	1.490E-01	1.470E-01
-21.6320	1.490E-01	1.470E-01
-21.6310	1.490E-01	1.470E-01
-21.6300	1.490E-01	1.470E-01
-21.6290	1.490E-01	1.470E-01
-21.6280	1.490E-01	1.480E-01
-21.6270	1.490E-01	1.480E-01
-21.6260	1.490E-01	1.480E-01
-21.6250	1.490E-01	1.480E-01
-21.6240	1.490E-01	1.480E-01
-21.6230	1.490E-01	1.480E-01
-21.6220	1.490E-01	1.480E-01
-21.6210	1.490E-01	1.480E-01
-21.6200	1.490E-01	1.480E-01
-21.6190	1.490E-01	1.480E-01
-21.6180	1.500E-01	1.480E-01
-21.6170	1.500E-01	1.480E-01
-21.6160	1.500E-01	1.480E-01
-21.6150	1.500E-01	1.480E-01
-21.6140	1.500E-01	1.480E-01
-21.6130	1.500E-01	1.490E-01
-21.6120	1.500E-01	1.490E-01
-21.6110	1.500E-01	1.490E-01
-21.6100	1.500E-01	1.490E-01
-21.6090	1.510E-01	1.490E-01
-21.6080	1.510E-01	1.490E-01
-21.6070	1.500E-01	1.480E-01
-21.6060	1.500E-01	1.480E-01
-21.6050	1.490E-01	1.480E-01
-21.6040	1.490E-01	1.480E-01
-21.6030	1.490E-01	1.480E-01
-21.6020	1.490E-01	1.480E-01
-21.6010	1.490E-01	1.480E-01
-21.6000	1.490E-01	1.480E-01
-21.5990	1.490E-01	1.480E-01
-21.5980	1.490E-01	1.470E-01
-21.5970	1.490E-01	1.470E-01
-21.5960	1.490E-01	1.480E-01
-21.5950	1.490E-01	1.480E-01
-21.5940	1.490E-01	1.480E-01
-21.5930	1.490E-01	1.480E-01
-21.5920	1.490E-01	1.480E-01
-21.5910	1.490E-01	1.480E-01
-21.5900	1.490E-01	1.480E-01
-21.5890	1.490E-01	1.480E-01
-21.5880	1.490E-01	1.480E-01
-21.5870	1.490E-01	1.480E-01
-21.5860	1.490E-01	1.480E-01
-21.5850	1.500E-01	1.480E-01
-21.5840	1.500E-01	1.480E-01
-21.5830	1.500E-01	1.480E-01
-21.5820	1.500E-01	1.480E-01
-21.5810	1.500E-01	1.480E-01
-21.5800	1.500E-01	1.490E-01
-21.5790	1.500E-01	1.490E-01
-21.5780	1.500E-01	1.490E-01
-21.5770	1.500E-01	1.490E-01
-21.5760	1.500E-01	1.490E-01
-21.5750	1.500E-01	1.490E-01
-21.5740	1.510E-01	1.490E-01
-21.5730	1.500E-01	1.490E-01
-21.5720	1.500E-01	1.480E-01
-21.5710	1.500E-01	1.480E-01
-21.5700	1.490E-01	1.480E-01
-21.5690	1.490E-01	1.480E-01
-21.5680	1.490E-01	1.480E-01
-21.5670	1.490E-01	1.480E-01
-21.5660	1.490E-01	1.480E-01
-21.5650	1.490E-01	1.480E-01
-21.5640	1.490E-01	1.480E-01
-21.5630	1.490E-01	1.480E-01
-21.5620	1.490E-01	1.480E-01
-21.5610	1.490E-01	1.480E-01
-21.5600	1.490E-01	1.480E-01
-21.5590	1.490E-01	1.480E-01
-21.5580	1.490E-01	1.480E-01
-21.5570	1.490E-01	1.480E-01
-21.5560	1.490E-01	1.480E-01
-21.5550	1.490E-01	1.480E-01
-21.5540	1.490E-01	1.480E-01
-21.5530	1.490E-01	1.480E-01
-21.5520	1.490E-01	1.480E-01
-21.5510	1.500E-01	1.480E-01
-21.5500	1.500E-01	1.480E-01
-21.5490	1.500E-01	1.480E-01
-21.5480	1.500E-01	1.480E-01
-21.5470	1.500E-01	1.480E-01
-21.5460	1.500E-01	1.480E-01
-21.5450	1.500E-01	1.480E-01
-21.5440	1.500E-01	1.490E-01
-21.5430	1.500E-01	1.490E-01
-21.5420	1.500E-01	1.490E-01
-21.5410	1.500E-01	1.490E-01
-21.5400	1.500E-01	1.490E-01
-21.5390	1.500E-01	1.490E-01
-21.5380	1.500E-01	1.490E-01
-21.5370	1.510E-01	1.490E-01
-21.5360	1.500E-01	1.480E-01
-21.5350	1.500E-01	1.480E-01
-21.5340	1.500E-01	1.480E-01
-21.5330	1.490E-01	1.480E-01
-21.5320	1.490E-01	1.480E-01
-21.5310	1.490E-01	1.480E-01
-21.5300	1.490E-01	1.480E-01
-21.5290	1.490E-01	1.480E-01
-21.5280	1.490E-01	1.480E-01
-21.5270	1.490E-01	1.480E-01
-21.5260	1.490E-01	1.480E-01
-21.5250	1.490E-01	1.480E-01
-21.5240	1.490E-01	1.480E-01
-21.5230	1.490E-01	1.480E-01
-21.5220	1.490E-01	1.480E-01
-21.5210	1.490E-01	1.480E-01
-21.5200	1.490E-01	1.480E-01
-21.5190	1.490E-01	1.480E-01
-21.5180	1.490E-01	1.480E-01
-21.5170	1.490E-01	1.480E-01
-21.5160	1.490E-01	1.480E-01
-21.5150	1.490E-01	1.480E-01
-21.5140	1.490E-01	1.480E-01
-21.5130	1.500E-01	1.480E-01
-21.5120	1.500E-01	1.480E-01
-21.5110	1.500E-01	1.480E-01
-21.5100	1.500E-01	1.480E-01
-21.5090	1.500E-01	1.480E-01
-21.5080	1.500E-01	1.480E-01
-21.5070	1.500E-01	1.480E-01
-21.5060	1.500E-01	1.480E-01
-21.5050	1.500E-01	1.490E-01
-21.5040	1.500E-01	1.490E-01
-21.5030	1.500E-01	1.490E-01
-21.5020	1.500E-01	1.490E-01
-21.5010	1.500E-01	1.490E-01
-21.5000	1.500E-01	1.490E-01
-21.4990	1.500E-01	1.490E-01
-21.4980	1.500E-01	1.490E-01
-21.4970	1.500E-01	1.490E-01
-21.4960	1.500E-01	1.480E-01
-21.4950	1.500E-01	1.480E-01
-21.4940	1.500E-01	1.480E-01
-21.4930	1.490E-01	1.480E-01
-21.4920	1.490E-01	1.480E-01
-21.4910	1.490E-01	1.480E-01
-21.4900	1.490E-01	1.480E-01
-21.4890	1.490E-01	1.480E-01
-21.4880	1.490E-01	1.480E-01
-21.4870	1.490E-01	1.480E-01
-21.4860	1.490E-01	1.480E-01
-21.4850	1.490E-01	1.480E-01
-21.4840	1.490E-01	1.480E-01
-21.4830	1.490E-01	1.480E-01
-21.4820	1.490E-01	1.480E-01
-21.4810	1.490E-01	1.480E-01
-21.4800	1.490E-01	1.480E-01
-21.4790	1.490E-01	1.480E-01
-21.4780	1.490E-01	1.480E-01
-21.4770	1.490E-01	1.480E-01
-21.4760	1.500E-01	1.480E-01
-21.4750	1.500E-01	1.480E-01
-21.4740	1.500E-01	1.480E-01
-21.4730	1.500E-01	1.480E-01
-21.4720	1.500E-01	1.480E-01
-21.4710	1.500E-01	1.480E-01
-21.4700	1.500E-01	1.480E-01
-21.4690	1.500E-01	1.480E-01
-21.4680	1.500E-01	1.480E-01
-21.4670	1.500E-01	1.480E-01
-21.4660	1.500E-01	1.480E-01
-21.4650	1.500E-01	1.490E-01
-21.4640	1.500E-01	1.490E-01
-21.4630	1.500E-01	1.490E-01
-21.4620	1.500E-01	1.490E-01
-21.4610	1.500E-01	1.490E-01
-21.4600	1.500E-01	1.490E-01
-21.4590	1.500E-01	1.490E-01
-21.4580	1.500E-01	1.490E-01
-21.4570	1.500E-01	1.490E-01
-21.4560	1.500E-01	1.490E-01
-21.4550	1.500E-01	1.480E-01
-21.4540	1.500E-01	1.480E-01
-21.4530	1.500E-01	1.480E-01
-21.4520	1.500E-01	1.480E-01
-21.4510	1.500E-01	1.480E-01
-21.4500	1.500E-01	1.480E-01
-21.4490	1.500E-01	1.480E-01
-21.4480	1.490E-01	1.480E-01
-21.4470	1.490E-01	1.480E-01
-21.4460	1.490E-01	1.480E-01
-21.4450	1.490E-01	1.480E-01
-21.4440	1.490E-01	1.480E-01
-21.4430	1.490E-01	1.480E-01
-21.4420	1.490E-01	1.480E-01
-21.4410	1.490E-01	1.480E-01
-21.4400	1.490E-01	1.480E-01
-21.4390	1.490E-01	1.480E-01
-21.4380	1.490E-01	1.480E-01
-21.4370	1.490E-01	1.480E-01
-21.4360	1.490E-01	1.480E-01
-21.4350	1.500E-01	1.480E-01
-21.4340	1.500E-01	1.480E-01
-21.4330	1.500E-01	1.480E-01
-21.4320	1.500E-01	1.480E-01
-21.4310	1.500E-01	1.480E-01
-21.4300	1.500E-01	1.480E-01
-21.4290	1.500E-01	1.480E-01
-21.4280	1.500E-01	1.480E-01
-21.4270	1.500E-01	1.480E-01
-21.4260	1.500E-01	1.480E-01
-21.4250	1.500E-01	1.480E-01
-21.4240	1.500E-01	1.480E-01
-21.4230	1.500E-01	1.480E-01
-21.4220	1.500E-01	1.490E-01
-21.4210	1.500E-01	1.490E-01
-21.4200	1.500E-01	1.490E-01
-21.4190	1.500E-01	1.490E-01
-21.4180	1.500E-01	1.490E-01
-21.4170	1.500E-01	1.490E-01
-21.4160	1.500E-01	1.490E-01
-21.4150	1.500E-01	1.490E-01
-21.4140	1.500E-01	1.490E-01
-21.4130	1.500E-01	1.490E-01
-21.4120	1.500E-01	1.490E-01
-21.4110	1.500E-01	1.490E-01
-21.4100	1.500E-01	1.480E-01
-21.4090	1.500E-01	1.480E-01
-21.4080	1.500E-01	1.480E-01
-21.4070	1.500E-01	1.480E-01
-21.4060	1.500E-01	1.480E-01
-21.4050	1.500E-01	1.480E-01
-21.4040	1.500E-01	1.480E-01
-21.4030	1.500E-01	1.480E-01
-21.4020	1.500E-01	1.480E-01
-21.4010	1.500E-01	1.480E-01
-21.4000	1.500E-01	1.480E-01
-21.3990	1.500E-01	1.480E-01
-21.3980	1.500E-01	1.480E-01
-21.3970	1.500E-01	1.480E-01
-21.3960	1.500E-01	1.480E-01
-21.3950	1.500E-01	1.480E-01
-21.3940	1.500E-01	1.480E-01
-21.3930	1.500E-01	1.480E-01
-21.3920	1.500E-01	1.480E-01
-21.3910	1.500E-01	1.480E-01
-21.3900	1.500E-01	1.480E-01
-21.3890	1.500E-01	1.480E-01
-21.3880	1.500E-01	1.480E-01
-21.3870	1.500E-01	1.480E-01
-21.3860	1.500E-01	1.480E-01
-21.3850	1.500E-01	1.480E-01
-21.3840	1.500E-01	1.480E-01
-21.3830	1.500E-01	1.480E-01
-21.3820	1.500E-01	1.480E-01
-21.3810	1.500E-01	1.480E-01
-21.3800	1.500E-01	1.480E-01
-21.3790	1.500E-01	1.480E-01
-21.3780	1.500E-01	1.490E-01
-21.3770	1.500E-01	1.490E-01
-21.3760	1.500E-01	1.490E-01
-21.3750	1.500E-01	1.490E-01
-21.3740	1.500E-01	1.490E-01
-21.3730	1.500E-01	1.490E-01
-21.3720	1.500E-01	1.490E-01
-21.3710	1.500E-01	1.490E-01
-21.3700	1.500E-01	1.490E-01
-21.3690	1.500E-01	1.490E-01
-21.3680	1.500E-01	1.490E-01
-21.3670	1.500E-01	1.490E-01
-21.3660	1.510E-01	1.490E-01
-21.3650	1.500E-01	1.490E-01
-21.3640	1.500E-01	1.490E-01
-21.3630	1.500E-01	1.480E-01
-21.3620	1.500E-01	1.480E-01
-21.3610	2.314E-01	2.286E-01
-21.3600	3.790E-01	3.750E-01
-21.3590	2.850E-01	2.820E-01
-21.3580	2.970E-01	2.940E-01
-21.3570	3.090E-01	3.060E-01
-21.3560	3.070E-01	3.040E-01
-21.3550	2.920E-01	2.890E-01
-21.3540	2.930E-01	2.900E-01
-21.3530	2.970E-01	2.940E-01
-21.3520	3.020E-01	2.980E-01
-21.3510	3.060E-01	3.030E-01
-21.3500	3.100E-01	3.070E-01
-21.3490	2.980E-01	2.950E-01
-21.3480	2.970E-01	2.940E-01
-21.3470	2.960E-01	2.930E-01
-21.3460	2.960E-01	2.930E-01
-21.3450	2.990E-01	2.950E-01
-21.3440	3.010E-01	2.970E-01
-21.3430	3.030E-01	3.000E-01
-21.3420	3.050E-01	3.020E-01
-21.3410	3.040E-01	3.010E-01
-21.3400	2.980E-01	2.950E-01
-21.3390	2.970E-01	2.940E-01
-21.3380	2.970E-01	2.940E-01
-21.3370	2.980E-01	2.950E-01
-21.3360	2.980E-01	2.950E-01
-21.3350	2.990E-01	2.950E-01
-21.3340	3.000E-01	2.960E-01
-21.3330	3.010E-01	2.980E-01
-21.3320	3.020E-01	2.990E-01
-21.3310	3.040E-01	3.000E-01
-21.3300	3.050E-01	3.020E-01
-21.3290	3.000E-01	2.980E-01
-21.3280	2.990E-01	2.970E-01
-21.3270	2.980E-01	2.960E-01
-21.3260	2.970E-01	2.950E-01
-21.3250	2.980E-01	2.960E-01
-21.3240	2.980E-01	2.960E-01
-21.3230	2.990E-01	2.970E-01
-21.3220	3.000E-01	2.970E-01
-21.3210	3.000E-01	2.980E-01
-21.3200	3.010E-01	2.980E-01
-21.3190	3.010E-01	2.990E-01
-21.3180	3.030E-01	3.000E-01
-21.3170	3.040E-01	3.010E-01
-21.3160	3.030E-01	3.010E-01
-21.3150	3.000E-01	2.980E-01
-21.3140	2.990E-01	2.970E-01
-21.3130	2.990E-01	2.960E-01
-21.3120	2.990E-01	2.950E-01
-21.3110	2.990E-01	2.950E-01
-21.3100	2.980E-01	2.950E-01
-21.3090	2.990E-01	2.950E-01
-21.3080	2.990E-01	2.960E-01
-21.3070	2.990E-01	2.960E-01
-21.3060	3.000E-01	2.970E-01
-21.3050	3.000E-01	2.970E-01
-21.3040	3.010E-01	2.970E-01
-21.3030	3.010E-01	2.980E-01
-21.3020	3.020E-01	2.980E-01
-21.3010	3.020E-01	2.990E-01
-21.3000	3.030E-01	2.990E-01
-21.2990	3.010E-01	2.970E-01
-21.2980	3.000E-01	2.970E-01
-21.2970	2.990E-01	2.960E-01
-21.2960	2.990E-01	2.950E-01
-21.2950	2.990E-01	2.950E-01
-21.2940	2.990E-01	2.960E-01
-21.2930	2.990E-01	2.960E-01
-21.2920	2.990E-01	2.960E-01
-21.2910	2.990E-01	2.960E-01
-21.2900	2.990E-01	2.960E-01
-21.2890	2.990E-01	2.960E-01
-21.2880	3.000E-01	2.960E-01
-21.2870	3.000E-01	2.970E-01
-21.2860	3.010E-01	2.970E-01
-21.2850	3.010E-01	2.980E-01
-21.2840	3.010E-01	2.980E-01
-21.2830	3.020E-01	2.980E-01
-21.2820	3.020E-01	3.000E-01
-21.2810	3.020E-01	3.000E-01
-21.2800	3.010E-01	2.980E-01
-21.2790	3.000E-01	2.970E-01
-21.2780	3.000E-01	2.970E-01
-21.2770	2.990E-01	2.970E-01
-21.2760	2.990E-01	2.970E-01
-21.2750	2.990E-01	2.970E-01
-21.2740	2.990E-01	2.970E-01
-21.2730	2.990E-01	2.970E-01
-21.2720	2.990E-01	2.970E-01
-21.2710	2.990E-01	2.970E-01
-21.2700	3.000E-01	2.970E-01
-21.2690	3.000E-01	2.970E-01
-21.2680	3.010E-01	2.970E-01
-21.2670	3.010E-01	2.980E-01
-21.2660	3.010E-01	2.980E-01
-21.2650	3.010E-01	2.980E-01
-21.2640	3.010E-01	2.980E-01
-21.2630	3.010E-01	2.990E-01
-21.2620	3.010E-01	2.990E-01
-21.2610	3.020E-01	2.990E-01
-21.2600	3.020E-01	2.990E-01
-21.2590	3.010E-01	2.970E-01
-21.2580	3.000E-01	2.970E-01
-21.2570	3.000E-01	2.970E-01
-21.2560	2.990E-01	2.960E-01
-21.2550	2.990E-01	2.960E-01
-21.2540	2.990E-01	2.960E-01
-21.2530	2.990E-01	2.960E-01
-21.2520	2.990E-01	2.960E-01
-21.2510	2.990E-01	2.960E-01
-21.2500	2.990E-01	2.960E-01
-21.2490	2.990E-01	2.960E-01
-21.2480	3.000E-01	2.960E-01
-21.2470	3.000E-01	2.960E-01
-21.2460	3.000E-01	2.960E-01
-21.2450	3.000E-01	2.970E-01
-21.2440	3.000E-01	2.970E-01
-21.2430	3.000E-01	2.970E-01
-21.2420	3.010E-01	2.970E-01
-21.2410	3.010E-01	2.970E-01
-21.2400	3.010E-01	2.970E-01
-21.2390	3.010E-01	2.980E-01
-21.2380	3.010E-01	2.980E-01
-21.2370	3.020E-01	2.980E-01
-21.2360	3.020E-01	2.980E-01
-21.2350	3.010E-01	2.980E-01
-21.2340	3.000E-01	2.970E-01
-21.2330	3.000E-01	2.970E-01
-21.2320	3.000E-01	2.970E-01
-21.2310	3.000E-01	2.970E-01
-21.2300	3.000E-01	2.970E-01
-21.2290	2.990E-01	2.970E-01
-21.2280	2.990E-01	2.970E-01
-21.2270	2.990E-01	2.970E-01
-21.2260	2.990E-01	2.970E-01
-21.2250	3.000E-01	2.970E-01
-21.2240	3.000E-01	2.970E-01
-21.2230	3.000E-01	2.970E-01
-21.2220	3.000E-01	2.970E-01
-21.2210	3.000E-01	2.970E-01
-21.2200	3.000E-01	2.980E-01
-21.2190	3.000E-01	2.980E-01
-21.2180	3.000E-01	2.980E-01
-21.2170	3.000E-01	2.980E-01
-21.2160	3.020E-01	2.980E-01
-21.2150	3.020E-01	2.980E-01
-21.2140	3.020E-01	2.980E-01
-21.2130	3.020E-01	2.990E-01
-21.2120	3.020E-01	2.990E-01
-21.2110	3.020E-01	2.990E-01
-21.2100	3.020E-01	2.990E-01
-21.2090	3.020E-01	2.990E-01
-21.2080	3.010E-01	2.980E-01
-21.2070	3.000E-01	2.980E-01
-21.2060	3.000E-01	2.980E-01
-21.2050	3.000E-01	2.970E-01
-21.2040	3.000E-01	2.960E-01
-21.2030	3.000E-01	2.960E-01
-21.2020	3.000E-01	2.960E-01
-21.2010	3.000E-01	2.960E-01
-21.2000	3.000E-01	2.960E-01
-21.1990	3.000E-01	2.960E-01
-21.1980	3.000E-01	2.960E-01
-21.1970	3.000E-01	2.960E-01
-21.1960	3.000E-01	2.960E-01
-21.1950	3.000E-01	2.960E-01
-21.1940	3.000E-01	2.960E-01
-21.1930	3.000E-01	2.970E-01
-21.1920	3.000E-01	2.970E-01
-21.1910	3.000E-01	2.970E-01
-21.1900	3.000E-01	2.970E-01
-21.1890	3.000E-01	2.970E-01
-21.1880	3.000E-01	2.970E-01
-21.1870	3.010E-01	2.970E-01
-21.1860	3.010E-01	2.970E-01
-21.1850	3.010E-01	2.970E-01
-21.1840	3.010E-01	2.980E-01
-21.1830	3.010E-01	2.980E-01
-21.1820	3.010E-01	2.990E-01
-21.1810	3.020E-01	2.990E-01
-21.1800	3.010E-01	2.990E-01
-21.1790	3.010E-01	2.980E-01
-21.1780	3.000E-01	2.980E-01
-21.1770	3.000E-01	2.980E-01
-21.1760	3.000E-01	2.980E-01
-21.1750	3.000E-01	2.970E-01
-21.1740	3.000E-01	2.970E-01
-21.1730	3.000E-01	2.970E-01
-21.1720	3.000E-01	2.970E-01
-21.1710	3.000E-01	2.970E-01
-21.1700	3.000E-01	2.970E-01
-21.1690	3.000E-01	2.970E-01
-21.1680	3.000E-01	2.970E-01
-21.1670	3.000E-01	2.970E-01
-21.1660	3.000E-01	2.970E-01
-21.1650	3.000E-01	2.970E-01
-21.1640	3.000E-01	2.980E-01
-21.1630	3.010E-01	2.980E-01
-21.1620	3.010E-01	2.980E-01
-21.1610	3.010E-01	2.980E-01
-21.1600	3.010E-01	2.980E-01
-21.1590	3.010E-01	2.980E-01
-21.1580	3.010E-01	2.980E-01
-21.1570	3.020E-01	2.980E-01
-21.1560	3.020E-01	2.980E-01
-21.1550	3.020E-01	2.980E-01
-21.1540	3.020E-01	2.980E-01
-21.1530	3.020E-01	2.990E-01
-21.1520	3.010E-01	2.990E-01
-21.1510	3.010E-01	2.990E-01
-21.1500	3.010E-01	2.990E-01
-21.1490	3.020E-01	2.990E-01
-21.1480	3.010E-01	2.980E-01
-21.1470	3.010E-01	2.980E-01
-21.1460	3.000E-01	2.980E-01
-21.1450	3.000E-01	2.980E-01
-21.1440	3.000E-01	2.980E-01
-21.1430	3.000E-01	2.980E-01
-21.1420	3.000E-01	2.970E-01
-21.1410	3.000E-01	2.970E-01
-21.1400	3.000E-01	2.970E-01
-21.1390	3.000E-01	2.970E-01
-21.1380	3.000E-01	2.970E-01
-21.1370	3.000E-01	2.970E-01
-21.1360	3.000E-01	2.970E-01
-21.1350	3.000E-01	2.970E-01
-21.1340	3.000E-01	2.970E-01
-21.1330	3.000E-01	2.980E-01
-21.1320	3.000E-01	2.980E-01
-21.1310	3.000E-01	2.980E-01
-21.1300	3.000E-01	2.980E-01
-21.1290	3.000E-01	2.980E-01
-21.1280	3.000E-01	2.980E-01
-21.1270	3.000E-01	2.980E-01
-21.1260	3.000E-01	2.980E-01
-21.1250	3.010E-01	2.980E-01
-21.1240	3.010E-01	2.980E-01
-21.1230	3.010E-01	2.980E-01
-21.1220	3.010E-01	2.980E-01
-21.1210	3.010E-01	2.980E-01
-21.1200	3.010E-01	2.980E-01
-21.1190	3.010E-01	2.990E-01
-21.1180	3.010E-01	2.990E-01
-21.1170	3.010E-01	2.990E-01
-21.1160	3.010E-01	2.990E-01
-21.1150	3.010E-01	2.990E-01
-21.1140	3.010E-01	2.980E-01
-21.1130	3.000E-01	2.980E-01
-21.1120	3.000E-01	2.980E-01
-21.1110	3.000E-01	2.980E-01
-21.1100	3.000E-01	2.980E-01
-21.1090	3.000E-01	2.980E-01
-21.1080	3.010E-01	2.980E-01
-21.1070	3.010E-01	2.980E-01
-21.1060	3.010E-01	2.980E-01
-21.1050	3.010E-01	2.980E-01
-21.1040	3.010E-01	2.980E-01
-21.1030	3.010E-01	2.980E-01
-21.1020	3.010E-01	2.980E-01
-21.1010	3.010E-01	2.970E-01
-21.1000	3.010E-01	2.970E-01
-21.0990	3.010E-01	2.980E-01
-21.0980	3.010E-01	2.980E-01
-21.0970	3.010E-01	2.980E-01
-21.0960	3.010E-01	2.980E-01
-21.0950	3.010E-01	2.980E-01
-21.0940	3.010E-01	2.980E-01
-21.0930	3.010E-01	2.980E-01
-21.0920	3.000E-01	2.980E-01
-21.0910	3.000E-01	2.980E-01
-21.0900	3.010E-01	2.980E-01
-21.0890	3.010E-01	2.980E-01
-21.0880	3.010E-01	2.980E-01
-21.0870	3.010E-01	2.980E-01
-21.0860	3.010E-01	2.980E-01
-21.0850	3.010E-01	2.980E-01
-21.0840	3.010E-01	2.980E-01
-21.0830	3.010E-01	2.990E-01
-21.0820	3.010E-01	2.990E-01
-21.0810	3.010E-01	2.990E-01
-21.0800	3.010E-01	2.990E-01
-21.0790	3.010E-01	2.990E-01
-21.0780	3.010E-01	2.980E-01
-21.0770	3.010E-01	2.980E-01
-21.0760	3.010E-01	2.980E-01
-21.0750	3.000E-01	2.980E-01
-21.0740	3.000E-01	2.980E-01
-21.0730	3.000E-01	2.980E-01
-21.0720	3.000E-01	2.980E-01
-21.0710	3.000E-01	2.980E-01
-21.0700	3.000E-01	2.980E-01
-21.0690	3.000E-01	2.980E-01
-21.0680	3.000E-01	2.980E-01
-21.0670	3.000E-01	2.980E-01
-21.0660	3.000E-01	2.980E-01
-21.0650	3.000E-01	2.980E-01
-21.0640	3.000E-01	2.980E-01
-21.0630	3.000E-01	2.980E-01
-21.0620	3.000E-01	2.980E-01
-21.0610	3.000E-01	2.980E-01
-21.0600	3.000E-01	2.980E-01
-21.0590	3.000E-01	2.980E-01
-21.0580	3.000E-01	2.980E-01
-21.0570	3.000E-01	2.980E-01
-21.0560	3.000E-01	2.980E-01
-21.0550	3.000E-01	2.980E-01
-21.0540	3.000E-01	2.980E-01
-21.0530	3.010E-01	2.980E-01
-21.0520	3.020E-01	2.980E-01
-21.0510	3.020E-01	2.980E-01
-21.0500	3.020E-01	2.980E-01
-21.0490	3.020E-01	2.980E-01
-21.0480	3.020E-01	2.980E-01
-21.0470	3.020E-01	2.980E-01
-21.0460	3.020E-01	2.980E-01
-21.0450	3.020E-01	2.980E-01
-21.0440	3.020E-01	2.990E-01
-21.0430	3.020E-01	2.990E-01
-21.0420	3.020E-01	2.990E-01
-21.0410	3.020E-01	2.990E-01
-21.0400	3.020E-01	2.990E-01
-21.0390	3.020E-01	2.990E-01
-21.0380	3.020E-01	2.980E-01
-21.0370	3.020E-01	2.980E-01
-21.0360	3.010E-01	2.980E-01
-21.0350	3.010E-01	2.980E-01
-21.0340	3.010E-01	2.980E-01
-21.0330	3.010E-01	2.980E-01
-21.0320	3.010E-01	2.980E-01
-21.0310	3.010E-01	2.980E-01
-21.0300	3.010E-01	2.980E-01
-21.0290	3.010E-01	2.980E-01
-21.0280	3.000E-01	2.980E-01
-21.0270	3.000E-01	2.980E-01
-21.0260	3.000E-01	2.980E-01
-21.0250	3.000E-01	2.980E-01
-21.0240	3.000E-01	2.980E-01
-21.0230	3.000E-01	2.980E-01
-21.0220	3.000E-01	2.980E-01
-21.0210	3.000E-01	2.980E-01
-21.0200	3.000E-01	2.980E-01
-21.0190	3.000E-01	2.980E-01
-21.0180	3.000E-01	2.980E-01
-21.0170	3.000E-01	2.980E-01
-21.0160	3.000E-01	2.980E-01
-21.0150	3.000E-01	2.980E-01
-21.0140	3.010E-01	2.980E-01
-21.0130	3.010E-01	2.980E-01
-21.0120	3.010E-01	2.980E-01
-21.0110	3.010E-01	2.980E-01
-21.0100	3.010E-01	2.980E-01
-21.0090	3.010E-01	2.980E-01
-21.0080	3.010E-01	2.980E-01
-21.0070	3.010E-01	2.980E-01
-21.0060	3.010E-01	2.980E-01
-21.0050	3.010E-01	2.980E-01
-21.0040	3.010E-01	2.980E-01
-21.0030	3.010E-01	2.990E-01
-21.0020	3.010E-01	2.990E-01
-21.0010	3.010E-01	2.990E-01
-21.0000	3.010E-01	2.990E-01
-20.9990	3.010E-01	2.990E-01
-20.9980	3.010E-01	2.990E-01
-20.9970	3.020E-01	2.980E-01
-20.9960	3.020E-01	2.980E-01
-20.9950	3.020E-01	2.980E-01
-20.9940	3.010E-01	2.980E-01
-20.9930	3.010E-01	2.980E-01
-20.9920	3.010E-01	2.980E-01
-20.9910	3.010E-01	2.980E-01
-20.9900	3.010E-01	2.980E-01
-20.9890	3.010E-01	2.980E-01
-20.9880	3.010E-01	2.980E-01
-20.9870	3.010E-01	2.980E-01
-20.9860	3.010E-01	2.980E-01
-20.9850	3.010E-01	2.980E-01
-20.9840	3.010E-01	2.980E-01
-20.9830	3.010E-01	2.980E-01
-20.9820	3.010E-01	2.980E-01
-20.9810	3.010E-01	2.980E-01
-20.9800	3.010E-01	2.980E-01
-20.9790	3.010E-01	2.980E-01
-20.9780	3.010E-01	2.980E-01
-20.9770	3.010E-01	2.980E-01
-20.9760	3.010E-01	2.980E-01
-20.9750	3.010E-01	2.980E-01
-20.9740	3.010E-01	2.980E-01
-20.9730	3.020E-01	2.980E-01
-20.9720	3.020E-01	2.980E-01
-20.9710	3.020E-01	2.980E-01
-20.9700	3.020E-01	2.980E-01
-20.9690	3.020E-01	2.980E-01
-20.9680	3.020E-01	2.980E-01
-20.9670	3.020E-01	2.980E-01
-20.9660	3.020E-01	2.980E-01
-20.9650	3.020E-01	2.980E-01
-20.9640	3.020E-01	2.980E-01
-20.9630	3.020E-01	2.980E-01
-20.9620	3.020E-01	2.980E-01
-20.9610	3.020E-01	2.980E-01
-20.9600	3.020E-01	2.990E-01
-20.9590	3.020E-01	2.990E-01
-20.9580	3.020E-01	2.990E-01
-20.9570	3.020E-01	2.990E-01
-20.9560	3.020E-01	2.990E-01
-20.9550	3.020E-01	2.990E-01
-20.9540	3.010E-01	2.990E-01
-20.9530	3.020E-01	2.980E-01
-20.9520	3.020E-01	2.980E-01
-20.9510	3.020E-01	2.980E-01
-20.9500	3.020E-01	2.980E-01
-20.9490	3.020E-01	2.980E-01
-20.9480	3.010E-01	2.980E-01
-20.9470	3.010E-01	2.980E-01
-20.9460	3.010E-01	2.980E-01
-20.9450	3.010E-01	2.980E-01
-20.9440	3.010E-01	2.980E-01
-20.9430	3.010E-01	2.980E-01
-20.9420	3.010E-01	2.980E-01
-20.9410	3.010E-01	2.980E-01
-20.9400	3.010E-01	2.980E-01
-20.9390	3.010E-01	2.980E-01
-20.9380	3.010E-01	2.980E-01
-20.9370	3.010E-01	2.980E-01
-20.9360	3.010E-01	2.980E-01
-20.9350	3.010E-01	2.980E-01
-20.9340	3.010E-01	2.980E-01
-20.9330	3.010E-01	2.980E-01
-20.9320	3.020E-01	2.980E-01
-20.9310	3.020E-01	2.980E-01
-20.9300	3.020E-01	2.980E-01
-20.9290	3.020E-01	2.980E-01
-20.9280	3.020E-01	2.980E-01
-20.9270	3.020E-01	2.980E-01
-20.9260	3.020E-01	2.980E-01
-20.9250	3.020E-01	2.980E-01
-20.9240	3.020E-01	2.980E-01
-20.9230	3.020E-01	2.980E-01
-20.9220	3.020E-01	2.980E-01
-20.9210	3.020E-01	2.980E-01
-20.9200	3.020E-01	2.980E-01
-20.9190	3.020E-01	2.980E-01
-20.9180	3.020E-01	2.980E-01
-20.9170	3.020E-01	2.980E-01
-20.9160	3.020E-01	2.980E-01
-20.9150	3.020E-01	2.990E-01
-20.9140	3.020E-01	2.990E-01
-20.9130	3.020E-01	2.990E-01
-20.9120	3.020E-01	2.990E-01
-20.9110	3.020E-01	2.990E-01
-20.9100	3.020E-01	2.990E-01
-20.9090	3.020E-01	2.990E-01
-20.9080	3.020E-01	2.990E-01
-20.9070	3.020E-01	2.990E-01
-20.9060	3.020E-01	2.980E-01
-20.9050	3.020E-01	2.980E-01
-20.9040	3.020E-01	2.980E-01
-20.9030	3.020E-01	2.980E-01
-20.9020	3.020E-01	2.980E-01
-20.9010	3.020E-01	2.980E-01
-20.9000	3.020E-01	2.980E-01
-20.8990	3.020E-01	2.980E-01
-20.8980	3.020E-01	2.980E-01
-20.8970	3.020E-01	2.980E-01
-20.8960	3.020E-01	2.980E-01
-20.8950	3.020E-01	2.980E-01
-20.8940	3.020E-01	2.980E-01
-20.8930	3.020E-01	2.980E-01
-20.8920	3.020E-01	2.980E-01
-20.8910	3.020E-01	2.980E-01
-20.8900	3.020E-01	2.980E-01
-20.8890	3.020E-01	2.980E-01
-20.8880	3.020E-01	2.980E-01
-20.8870	3.020E-01	2.980E-01
-20.8860	3.020E-01	2.980E-01
-20.8850	3.020E-01	2.980E-01
-20.8840	3.020E-01	2.980E-01
-20.8830	3.020E-01	2.980E-01
-20.8820	3.020E-01	2.980E-01
-20.8810	3.020E-01	2.980E-01
-20.8800	3.020E-01	2.980E-01
-20.8790	3.020E-01	2.980E-01
-20.8780	3.020E-01	2.980E-01
-20.8770	3.020E-01	2.980E-01
-20.8760	3.020E-01	2.980E-01
-20.8750	3.020E-01	2.980E-01
-20.8740	3.020E-01	2.980E-01
-20.8730	3.020E-01	2.980E-01
-20.8720	3.020E-01	2.980E-01
-20.8710	3.020E-01	2.980E-01
-20.8700	3.020E-01	2.980E-01
-20.8690	3.020E-01	2.980E-01
-20.8680	3.020E-01	2.990E-01
-20.8670	3.020E-01	2.990E-01
-20.8660	3.020E-01	2.990E-01
-20.8650	3.020E-01	2.990E-01
-20.8640	3.020E-01	2.990E-01
-20.8630	3.020E-01	2.990E-01
-20.8620	3.020E-01	2.990E-01
-20.8610	3.020E-01	2.990E-01
-20.8600	3.020E-01	2.990E-01
-20.8590	3.020E-01	2.990E-01
-20.8580	3.020E-01	2.990E-01
-20.8570	3.020E-01	2.980E-01
-20.8560	3.020E-01	2.980E-01
-20.8550	3.020E-01	2.980E-01
-20.8540	3.020E-01	2.980E-01
-20.8530	3.020E-01	2.980E-01
-20.8520	3.020E-01	2.980E-01
-20.8510	3.020E-01	2.980E-01
-20.8500	3.020E-01	2.980E-01
-20.8490	3.020E-01	2.980E-01
-20.8480	3.020E-01	2.980E-01
-20.8470	3.020E-01	2.980E-01
-20.8460	3.020E-01	2.980E-01
-20.8450	3.020E-01	2.980E-01
-20.8440	3.020E-01	2.980E-01
-20.8430	3.020E-01	2.980E-01
-20.8420	3.020E-01	2.980E-01
-20.8410	3.020E-01	2.980E-01
-20.8400	3.020E-01	2.980E-01
-20.8390	3.020E-01	2.980E-01
-20.8380	3.020E-01	2.990E-01
-20.8370	3.020E-01	2.990E-01
-20.8360	3.020E-01	2.990E-01
-20.8350	3.020E-01	2.990E-01
-20.8340	3.020E-01	2.990E-01
-20.8330	3.020E-01	2.980E-01
-20.8320	3.020E-01	2.980E-01
-20.8310	3.020E-01	2.980E-01
-20.8300	3.020E-01	2.980E-01
-20.8290	3.020E-01	2.980E-01
-20.8280	3.020E-01	2.980E-01
-20.8270	3.020E-01	2.980E-01
-20.8260	3.020E-01	2.980E-01
-20.8250	3.020E-01	2.980E-01
-20.8240	3.020E-01	2.980E-01
-20.8230	3.020E-01	2.980E-01
-20.8220	3.020E-01	2.980E-01
-20.8210	3.020E-01	2.980E-01
-20.8200	3.020E-01	2.980E-01
-20.8190	3.020E-01	2.990E-01
-20.8180	3.020E-01	2.990E-01
-20.8170	3.020E-01	2.990E-01
-20.8160	3.020E-01	2.990E-01
-20.8150	3.020E-01	2.990E-01
-20.8140	3.020E-01	2.990E-01
-20.8130	3.020E-01	2.990E-01
-20.8120	3.020E-01	2.990E-01
-20.8110	3.020E-01	2.990E-01
-20.8100	3.020E-01	2.990E-01
-20.8090	3.020E-01	2.990E-01
-20.8080	3.030E-01	2.990E-01
-20.8070	3.020E-01	2.990E-01
-20.8060	3.020E-01	2.990E-01
-20.8050	3.020E-01	2.980E-01
-20.8040	3.020E-01	2.980E-01
-20.8030	3.020E-01	2.980E-01
-20.8020	3.020E-01	2.980E-01
-20.8010	3.020E-01	2.980E-01
-20.8000	3.020E-01	2.980E-01
-20.7990	3.020E-01	2.980E-01
-20.7980	3.020E-01	2.980E-01
-20.7970	3.020E-01	2.980E-01
-20.7960	3.020E-01	2.980E-01
-20.7950	3.020E-01	2.980E-01
-20.7940	3.020E-01	2.980E-01
-20.7930	3.020E-01	2.980E-01
-20.7920	3.020E-01	2.980E-01
-20.7910	3.020E-01	2.980E-01
-20.7900	3.020E-01	2.980E-01