# E (eV) pdos(E) 
-21.739  0.000E+00
-21.738  0.000E+00
-21.737  0.000E+00
-21.736  0.000E+00
-21.735  0.000E+00
-21.734  0.000E+00
-21.733  0.000E+00
-21.732  0.000E+00
-21.731  0.000E+00
-21.730  0.000E+00
-21.729  0.000E+00
-21.728  0.000E+00
-21.727  0.000E+00
-21.726  0.000E+00
-21.725  0.000E+00
-21.724  0.000E+00
-21.723  0.000E+00
-21.722  0.000E+00
-21.721  0.000E+00
-21.720  0.000E+00
-21.719  0.000E+00
-21.718  0.000E+00
-21.717  0.000E+00
-21.716  0.000E+00
-21.715  0.000E+00
-21.714  0.000E+00
-21.713  0.000E+00
-21.712  0.000E+00
-21.711  0.000E+00
-21.710  0.000E+00
-21.709  0.000E+00
-21.708  0.000E+00
-21.707  0.000E+00
-21.706  0.000E+00
-21.705  0.000E+00
-21.704  0.000E+00
-21.703  0.000E+00
-21.702  0.000E+00
-21.701  0.000E+00
-21.700  0.000E+00
-21.699  0.000E+00
-21.698  0.000E+00
-21.697  0.000E+00
-21.696  0.000E+00
-21.695  0.000E+00
-21.694  0.000E+00
-21.693  0.000E+00
-21.692  0.000E+00
-21.691  0.000E+00
-21.690  0.000E+00
-21.689  0.000E+00
-21.688  0.000E+00
-21.687  0.000E+00
-21.686  0.000E+00
-21.685  0.000E+00
-21.684  0.000E+00
-21.683  0.000E+00
-21.682  0.000E+00
-21.681  0.000E+00
-21.680  0.000E+00
-21.679  0.000E+00
-21.678  0.000E+00
-21.677  0.000E+00
-21.676  0.000E+00
-21.675  0.000E+00
-21.674  0.000E+00
-21.673  0.000E+00
-21.672  0.000E+00
-21.671  0.000E+00
-21.670  0.000E+00
-21.669  0.000E+00
-21.668  0.000E+00
-21.667  0.000E+00
-21.666  0.000E+00
-21.665  0.000E+00
-21.664  0.000E+00
-21.663  0.000E+00
-21.662  0.000E+00
-21.661  0.000E+00
-21.660  0.000E+00
-21.659  0.000E+00
-21.658  0.000E+00
-21.657  0.000E+00
-21.656  0.000E+00
-21.655  0.000E+00
-21.654  0.000E+00
-21.653  0.000E+00
-21.652  0.000E+00
-21.651  0.000E+00
-21.650  0.000E+00
-21.649  0.000E+00
-21.648  0.000E+00
-21.647  0.000E+00
-21.646  0.000E+00
-21.645  0.000E+00
-21.644  0.000E+00
-21.643  0.000E+00
-21.642  0.000E+00
-21.641  0.000E+00
-21.640  0.000E+00
-21.639  0.000E+00
-21.638  0.000E+00
-21.637  0.000E+00
-21.636  0.000E+00
-21.635  0.000E+00
-21.634  0.000E+00
-21.633  0.000E+00
-21.632  0.000E+00
-21.631  0.000E+00
-21.630  0.000E+00
-21.629  0.000E+00
-21.628  0.000E+00
-21.627  0.000E+00
-21.626  0.000E+00
-21.625  0.000E+00
-21.624  0.000E+00
-21.623  0.000E+00
-21.622  0.000E+00
-21.621  0.000E+00
-21.620  0.000E+00
-21.619  0.000E+00
-21.618  0.000E+00
-21.617  0.000E+00
-21.616  0.000E+00
-21.615  0.000E+00
-21.614  0.000E+00
-21.613  0.000E+00
-21.612  0.000E+00
-21.611  0.000E+00
-21.610  0.000E+00
-21.609  0.000E+00
-21.608  0.000E+00
-21.607  0.000E+00
-21.606  0.000E+00
-21.605  0.000E+00
-21.604  0.000E+00
-21.603  0.000E+00
-21.602  0.000E+00
-21.601  0.000E+00
-21.600  0.000E+00
-21.599  0.000E+00
-21.598  0.000E+00
-21.597  0.000E+00
-21.596  0.000E+00
-21.595  0.000E+00
-21.594  0.000E+00
-21.593  0.000E+00
-21.592  0.000E+00
-21.591  0.000E+00
-21.590  0.000E+00
-21.589  0.000E+00
-21.588  0.000E+00
-21.587  0.000E+00
-21.586  0.000E+00
-21.585  0.000E+00
-21.584  0.000E+00
-21.583  0.000E+00
-21.582  0.000E+00
-21.581  0.000E+00
-21.580  0.000E+00
-21.579  0.000E+00
-21.578  0.000E+00
-21.577  0.000E+00
-21.576  0.000E+00
-21.575  0.000E+00
-21.574  0.000E+00
-21.573  0.000E+00
-21.572  0.000E+00
-21.571  0.000E+00
-21.570  0.000E+00
-21.569  0.000E+00
-21.568  0.000E+00
-21.567  0.000E+00
-21.566  0.000E+00
-21.565  0.000E+00
-21.564  0.000E+00
-21.563  0.000E+00
-21.562  0.000E+00
-21.561  0.000E+00
-21.560  0.000E+00
-21.559  0.000E+00
-21.558  0.000E+00
-21.557  0.000E+00
-21.556  0.000E+00
-21.555  0.000E+00
-21.554  0.000E+00
-21.553  0.000E+00
-21.552  0.000E+00
-21.551  0.000E+00
-21.550  0.000E+00
-21.549  0.000E+00
-21.548  0.000E+00
-21.547  0.000E+00
-21.546  0.000E+00
-21.545  0.000E+00
-21.544  0.000E+00
-21.543  0.000E+00
-21.542  0.000E+00
-21.541  0.000E+00
-21.540  0.000E+00
-21.539  0.000E+00
-21.538  0.000E+00
-21.537  0.000E+00
-21.536  0.000E+00
-21.535  0.000E+00
-21.534  0.000E+00
-21.533  0.000E+00
-21.532  0.000E+00
-21.531  0.000E+00
-21.530  0.000E+00
-21.529  0.000E+00
-21.528  0.000E+00
-21.527  0.000E+00
-21.526  0.000E+00
-21.525  0.000E+00
-21.524  0.000E+00
-21.523  0.000E+00
-21.522  0.000E+00
-21.521  0.000E+00
-21.520  0.000E+00
-21.519  0.000E+00
-21.518  0.000E+00
-21.517  0.000E+00
-21.516  0.000E+00
-21.515  0.000E+00
-21.514  0.000E+00
-21.513  0.000E+00
-21.512  0.000E+00
-21.511  0.000E+00
-21.510  0.000E+00
-21.509  0.000E+00
-21.508  0.000E+00
-21.507  0.000E+00
-21.506  0.000E+00
-21.505  0.000E+00
-21.504  0.000E+00
-21.503  0.000E+00
-21.502  0.000E+00
-21.501  0.000E+00
-21.500  0.000E+00
-21.499  0.000E+00
-21.498  0.000E+00
-21.497  0.000E+00
-21.496  0.000E+00
-21.495  0.000E+00
-21.494  0.000E+00
-21.493  0.000E+00
-21.492  0.000E+00
-21.491  0.000E+00
-21.490  0.000E+00
-21.489  0.000E+00
-21.488  0.000E+00
-21.487  0.000E+00
-21.486  0.000E+00
-21.485  0.000E+00
-21.484  0.000E+00
-21.483  0.000E+00
-21.482  0.000E+00
-21.481  0.000E+00
-21.480  0.000E+00
-21.479  0.000E+00
-21.478  0.000E+00
-21.477  0.000E+00
-21.476  0.000E+00
-21.475  0.000E+00
-21.474  0.000E+00
-21.473  0.000E+00
-21.472  0.000E+00
-21.471  0.000E+00
-21.470  0.000E+00
-21.469  0.000E+00
-21.468  0.000E+00
-21.467  0.000E+00
-21.466  0.000E+00
-21.465  0.000E+00
-21.464  0.000E+00
-21.463  0.000E+00
-21.462  0.000E+00
-21.461  0.000E+00
-21.460  0.000E+00
-21.459  0.000E+00
-21.458  0.000E+00
-21.457  0.000E+00
-21.456  0.000E+00
-21.455  0.000E+00
-21.454  0.000E+00
-21.453  0.000E+00
-21.452  0.000E+00
-21.451  0.000E+00
-21.450  0.000E+00
-21.449  0.000E+00
-21.448  0.000E+00
-21.447  0.000E+00
-21.446  0.000E+00
-21.445  0.000E+00
-21.444  0.000E+00
-21.443  0.000E+00
-21.442  0.000E+00
-21.441  0.000E+00
-21.440  0.000E+00
-21.439  0.000E+00
-21.438  0.000E+00
-21.437  0.000E+00
-21.436  0.000E+00
-21.435  0.000E+00
-21.434  0.000E+00
-21.433  0.000E+00
-21.432  0.000E+00
-21.431  0.000E+00
-21.430  0.000E+00
-21.429  0.000E+00
-21.428  0.000E+00
-21.427  0.000E+00
-21.426  0.000E+00
-21.425  0.000E+00
-21.424  0.000E+00
-21.423  0.000E+00
-21.422  0.000E+00
-21.421  0.000E+00
-21.420  0.000E+00
-21.419  0.000E+00
-21.418  0.000E+00
-21.417  0.000E+00
-21.416  0.000E+00
-21.415  0.000E+00
-21.414  0.000E+00
-21.413  0.000E+00
-21.412  0.000E+00
-21.411  0.000E+00
-21.410  0.000E+00
-21.409  0.000E+00
-21.408  0.000E+00
-21.407  0.000E+00
-21.406  0.000E+00
-21.405  0.000E+00
-21.404  0.000E+00
-21.403  0.000E+00
-21.402  0.000E+00
-21.401  0.000E+00
-21.400  0.000E+00
-21.399  0.000E+00
-21.398  0.000E+00
-21.397  0.000E+00
-21.396  0.000E+00
-21.395  0.000E+00
-21.394  0.000E+00
-21.393  0.000E+00
-21.392  0.000E+00
-21.391  0.000E+00
-21.390  0.000E+00
-21.389  0.000E+00
-21.388  0.000E+00
-21.387  0.000E+00
-21.386  0.000E+00
-21.385  0.000E+00
-21.384  0.000E+00
-21.383  0.000E+00
-21.382  0.000E+00
-21.381  0.000E+00
-21.380  0.000E+00
-21.379  0.000E+00
-21.378  0.000E+00
-21.377  0.000E+00
-21.376  0.000E+00
-21.375  0.000E+00
-21.374  0.000E+00
-21.373  0.000E+00
-21.372  0.000E+00
-21.371  0.000E+00
-21.370  0.000E+00
-21.369  0.000E+00
-21.368  0.000E+00
-21.367  0.000E+00
-21.366  0.000E+00
-21.365  0.000E+00
-21.364  0.000E+00
-21.363  0.000E+00
-21.362  0.000E+00
-21.361  0.000E+00
-21.360  0.000E+00
-21.359  0.000E+00
-21.358  0.000E+00
-21.357  0.000E+00
-21.356  0.000E+00
-21.355  0.000E+00
-21.354  0.000E+00
-21.353  0.000E+00
-21.352  0.000E+00
-21.351  0.000E+00
-21.350  0.000E+00
-21.349  0.000E+00
-21.348  0.000E+00
-21.347  0.000E+00
-21.346  0.000E+00
-21.345  0.000E+00
-21.344  0.000E+00
-21.343  0.000E+00
-21.342  0.000E+00
-21.341  0.000E+00
-21.340  0.000E+00
-21.339  0.000E+00
-21.338  0.000E+00
-21.337  0.000E+00
-21.336  0.000E+00
-21.335  0.000E+00
-21.334  0.000E+00
-21.333  0.000E+00
-21.332  0.000E+00
-21.331  0.000E+00
-21.330  0.000E+00
-21.329  0.000E+00
-21.328  0.000E+00
-21.327  0.000E+00
-21.326  0.000E+00
-21.325  0.000E+00
-21.324  0.000E+00
-21.323  0.000E+00
-21.322  0.000E+00
-21.321  0.000E+00
-21.320  0.000E+00
-21.319  0.000E+00
-21.318  0.000E+00
-21.317  0.000E+00
-21.316  0.000E+00
-21.315  0.000E+00
-21.314  0.000E+00
-21.313  0.000E+00
-21.312  0.000E+00
-21.311  0.000E+00
-21.310  0.000E+00
-21.309  0.000E+00
-21.308  0.000E+00
-21.307  0.000E+00
-21.306  0.000E+00
-21.305  0.000E+00
-21.304  0.000E+00
-21.303  0.000E+00
-21.302  0.000E+00
-21.301  0.000E+00
-21.300  0.000E+00
-21.299  0.000E+00
-21.298  0.000E+00
-21.297  0.000E+00
-21.296  0.000E+00
-21.295  0.000E+00
-21.294  0.000E+00
-21.293  0.000E+00
-21.292  0.000E+00
-21.291  0.000E+00
-21.290  0.000E+00
-21.289  0.000E+00
-21.288  0.000E+00
-21.287  0.000E+00
-21.286  0.000E+00
-21.285  0.000E+00
-21.284  0.000E+00
-21.283  0.000E+00
-21.282  0.000E+00
-21.281  0.000E+00
-21.280  0.000E+00
-21.279  0.000E+00
-21.278  0.000E+00
-21.277  0.000E+00
-21.276  0.000E+00
-21.275  0.000E+00
-21.274  0.000E+00
-21.273  0.000E+00
-21.272  0.000E+00
-21.271  0.000E+00
-21.270  0.000E+00
-21.269  0.000E+00
-21.268  0.000E+00
-21.267  0.000E+00
-21.266  0.000E+00
-21.265  0.000E+00
-21.264  0.000E+00
-21.263  0.000E+00
-21.262  0.000E+00
-21.261  0.000E+00
-21.260  0.000E+00
-21.259  0.000E+00
-21.258  0.000E+00
-21.257  0.000E+00
-21.256  0.000E+00
-21.255  0.000E+00
-21.254  0.000E+00
-21.253  0.000E+00
-21.252  0.000E+00
-21.251  0.000E+00
-21.250  0.000E+00
-21.249  0.000E+00
-21.248  0.000E+00
-21.247  0.000E+00
-21.246  0.000E+00
-21.245  0.000E+00
-21.244  0.280E+03
-21.243  0.266E+03
-21.242  0.205E+03
-21.241  0.280E+03
-21.240  0.190E+03
-21.239  0.113E+03
-21.238  0.995E+02
-21.237  0.747E+02
-21.236  0.496E+02
-21.235  0.459E+02
-21.234  0.423E+02
-21.233  0.386E+02
-21.232  0.350E+02
-21.231  0.172E+02
-21.230  0.152E+02
-21.229  0.132E+02
-21.228  0.112E+02
-21.227  0.919E+01
-21.226  0.718E+01
-21.225  0.518E+01
-21.224  0.318E+01
-21.223  0.118E+01
-21.222  0.000E+00
-21.221  0.631E+00
-21.220  0.174E+01
-21.219  0.285E+01
-21.218  0.395E+01
-21.217  0.506E+01
-21.216  0.617E+01
-21.215  0.727E+01
-21.214  0.837E+01
-21.213  0.947E+01
-21.212  0.106E+02
-21.211  0.117E+02
-21.210  0.128E+02
-21.209  0.149E+02
-21.208  0.154E+02
-21.207  0.160E+02
-21.206  0.166E+02
-21.205  0.171E+02
-21.204  0.177E+02
-21.203  0.183E+02
-21.202  0.188E+02
-21.201  0.194E+02
-21.200  0.199E+02
-21.199  0.205E+02
-21.198  0.211E+02
-21.197  0.218E+02
-21.196  0.224E+02
-21.195  0.231E+02
-21.194  0.237E+02
-21.193  0.241E+02
-21.192  0.245E+02
-21.191  0.250E+02
-21.190  0.254E+02
-21.189  0.258E+02
-21.188  0.263E+02
-21.187  0.267E+02
-21.186  0.271E+02
-21.185  0.275E+02
-21.184  0.280E+02
-21.183  0.330E+02
-21.182  0.342E+02
-21.181  0.354E+02
-21.180  0.366E+02
-21.179  0.378E+02
-21.178  0.390E+02
-21.177  0.402E+02
-21.176  0.406E+02
-21.175  0.401E+02
-21.174  0.363E+02
-21.173  0.324E+02
-21.172  0.285E+02
-21.171  0.270E+02
-21.170  0.263E+02
-21.169  0.256E+02
-21.168  0.249E+02
-21.167  0.243E+02
-21.166  0.237E+02
-21.165  0.230E+02
-21.164  0.218E+02
-21.163  0.206E+02
-21.162  0.195E+02
-21.161  0.191E+02
-21.160  0.187E+02
-21.159  0.183E+02
-21.158  0.179E+02
-21.157  0.175E+02
-21.156  0.171E+02
-21.155  0.167E+02
-21.154  0.163E+02
-21.153  0.232E+02
-21.152  0.318E+02
-21.151  0.351E+02
-21.150  0.391E+02
-21.149  0.425E+02
-21.148  0.455E+02
-21.147  0.474E+02
-21.146  0.493E+02
-21.145  0.512E+02
-21.144  0.531E+02
-21.143  0.529E+02
-21.142  0.534E+02
-21.141  0.538E+02
-21.140  0.546E+02
-21.139  0.560E+02
-21.138  0.575E+02
-21.137  0.590E+02
-21.136  0.604E+02
-21.135  0.641E+02
-21.134  0.718E+02
-21.133  0.765E+02
-21.132  0.812E+02
-21.131  0.860E+02
-21.130  0.907E+02
-21.129  0.119E+03
-21.128  0.969E+02
-21.127  0.833E+02
-21.126  0.712E+02
-21.125  0.905E+02
-21.124  0.786E+02
-21.123  0.569E+02
-21.122  0.353E+02
-21.121  0.274E+02
-21.120  0.239E+02
-21.119  0.254E+02
-21.118  0.284E+02
-21.117  0.314E+02
-21.116  0.302E+02
-21.115  0.209E+02
-21.114  0.116E+02
-21.113  0.230E+01
-21.112  0.000E+00
-21.111  0.000E+00
-21.110  0.000E+00
-21.109  0.000E+00
-21.108  0.000E+00
-21.107  0.000E+00
-21.106  0.000E+00
-21.105  0.000E+00
-21.104  0.000E+00
-21.103  0.000E+00
-21.102  0.000E+00
-21.101  0.000E+00
-21.100  0.000E+00
-21.099  0.000E+00
-21.098  0.000E+00
-21.097  0.000E+00
-21.096  0.000E+00
-21.095  0.000E+00
-21.094  0.000E+00
-21.093  0.000E+00
-21.092  0.000E+00
-21.091  0.000E+00
-21.090  0.000E+00
-21.089  0.000E+00
-21.088  0.000E+00
-21.087  0.000E+00
-21.086  0.000E+00
-21.085  0.000E+00
-21.084  0.000E+00
-21.083  0.000E+00
-21.082  0.000E+00
-21.081  0.000E+00
-21.080  0.000E+00
-21.079  0.000E+00
-21.078  0.000E+00
-21.077  0.000E+00
-21.076  0.000E+00
-21.075  0.187E+00
-21.074  0.168E+03
-21.073  0.603E+02
-21.072  0.557E+02
-21.071  0.512E+02
-21.070  0.466E+02
-21.069  0.435E+02
-21.068  0.353E+02
-21.067  0.343E+02
-21.066  0.336E+02
-21.065  0.329E+02
-21.064  0.322E+02
-21.063  0.315E+02
-21.062  0.308E+02
-21.061  0.301E+02
-21.060  0.294E+02
-21.059  0.287E+02
-21.058  0.289E+02
-21.057  0.286E+02
-21.056  0.283E+02
-21.055  0.280E+02
-21.054  0.278E+02
-21.053  0.287E+02
-21.052  0.305E+02
-21.051  0.323E+02
-21.050  0.342E+02
-21.049  0.360E+02
-21.048  0.378E+02
-21.047  0.401E+02
-21.046  0.367E+02
-21.045  0.379E+02
-21.044  0.390E+02
-21.043  0.402E+02
-21.042  0.419E+02
-21.041  0.437E+02
-21.040  0.456E+02
-21.039  0.474E+02
-21.038  0.497E+02
-21.037  0.537E+02
-21.036  0.579E+02
-21.035  0.621E+02
-21.034  0.131E+03
-21.033  0.435E+02
-21.032  0.305E+02
-21.031  0.175E+02
-21.030  0.162E+02
-21.029  0.156E+02
-21.028  0.152E+02
-21.027  0.149E+02
-21.026  0.145E+02
-21.025  0.142E+02
-21.024  0.138E+02
-21.023  0.135E+02
-21.022  0.131E+02
-21.021  0.127E+02
-21.020  0.124E+02
-21.019  0.121E+02
-21.018  0.117E+02
-21.017  0.118E+02
-21.016  0.120E+02
-21.015  0.122E+02
-21.014  0.127E+02
-21.013  0.129E+02
-21.012  0.130E+02
-21.011  0.134E+02
-21.010  0.138E+02
-21.009  0.141E+02
-21.008  0.145E+02
-21.007  0.149E+02
-21.006  0.153E+02
-21.005  0.156E+02
-21.004  0.161E+02
-21.003  0.165E+02
-21.002  0.169E+02
-21.001  0.173E+02
-21.000  0.177E+02
-20.999  0.181E+02
-20.998  0.185E+02
-20.997  0.189E+02
-20.996  0.193E+02
-20.995  0.197E+02
-20.994  0.201E+02
-20.993  0.205E+02
-20.992  0.209E+02
-20.991  0.226E+02
-20.990  0.229E+02
-20.989  0.232E+02
-20.988  0.238E+02
-20.987  0.244E+02
-20.986  0.248E+02
-20.985  0.251E+02
-20.984  0.255E+02
-20.983  0.258E+02
-20.982  0.261E+02
-20.981  0.264E+02
-20.980  0.268E+02
-20.979  0.271E+02
-20.978  0.274E+02
-20.977  0.277E+02
-20.976  0.280E+02
-20.975  0.284E+02
-20.974  0.288E+02
-20.973  0.291E+02
-20.972  0.295E+02
-20.971  0.299E+02
-20.970  0.346E+02
-20.969  0.435E+02
-20.968  0.523E+02
-20.967  0.612E+02
-20.966  0.701E+02
-20.965  0.413E+02
-20.964  0.389E+02
-20.963  0.364E+02
-20.962  0.339E+02
-20.961  0.314E+02
-20.960  0.289E+02
-20.959  0.264E+02
-20.958  0.252E+02
-20.957  0.243E+02
-20.956  0.235E+02
-20.955  0.227E+02
-20.954  0.218E+02
-20.953  0.209E+02
-20.952  0.240E+02
-20.951  0.237E+02
-20.950  0.232E+02
-20.949  0.228E+02
-20.948  0.224E+02
-20.947  0.220E+02
-20.946  0.216E+02
-20.945  0.212E+02
-20.944  0.207E+02
-20.943  0.196E+02
-20.942  0.644E+01
-20.941  0.619E+01
-20.940  0.624E+01
-20.939  0.629E+01
-20.938  0.633E+01
-20.937  0.638E+01
-20.936  0.646E+01
-20.935  0.658E+01
-20.934  0.669E+01
-20.933  0.680E+01
-20.932  0.691E+01
-20.931  0.864E+01
-20.930  0.112E+02
-20.929  0.138E+02
-20.928  0.164E+02
-20.927  0.190E+02
-20.926  0.216E+02
-20.925  0.241E+02
-20.924  0.267E+02
-20.923  0.330E+02
-20.922  0.438E+02
-20.921  0.546E+02
-20.920  0.654E+02
-20.919  0.109E+03
-20.918  0.109E+03
-20.917  0.123E+03
-20.916  0.969E+02
-20.915  0.643E+02
-20.914  0.546E+02
-20.913  0.448E+02
-20.912  0.351E+02
-20.911  0.269E+02
-20.910  0.179E+02
-20.909  0.143E+02
-20.908  0.138E+02
-20.907  0.134E+02
-20.906  0.130E+02
-20.905  0.125E+02
-20.904  0.121E+02
-20.903  0.117E+02
-20.902  0.112E+02
-20.901  0.108E+02
-20.900  0.105E+02
-20.899  0.103E+02
-20.898  0.108E+02
-20.897  0.117E+02
-20.896  0.127E+02
-20.895  0.136E+02
-20.894  0.266E+02
-20.893  0.306E+02
-20.892  0.310E+02
-20.891  0.321E+02
-20.890  0.332E+02
-20.889  0.343E+02
-20.888  0.355E+02
-20.887  0.365E+02
-20.886  0.354E+02
-20.885  0.344E+02
-20.884  0.333E+02
-20.883  0.322E+02
-20.882  0.312E+02
-20.881  0.301E+02
-20.880  0.292E+02
-20.879  0.291E+02
-20.878  0.290E+02
-20.877  0.290E+02
-20.876  0.289E+02
-20.875  0.295E+02
-20.874  0.304E+02
-20.873  0.313E+02
-20.872  0.321E+02
-20.871  0.330E+02
-20.870  0.339E+02
-20.869  0.348E+02
-20.868  0.357E+02
-20.867  0.365E+02
-20.866  0.376E+02
-20.865  0.344E+02
-20.864  0.293E+02
-20.863  0.241E+02
-20.862  0.209E+02
-20.861  0.205E+02
-20.860  0.203E+02
-20.859  0.200E+02
-20.858  0.198E+02
-20.857  0.195E+02
-20.856  0.193E+02
-20.855  0.190E+02
-20.854  0.188E+02
-20.853  0.186E+02
-20.852  0.183E+02
-20.851  0.181E+02
-20.850  0.178E+02
-20.849  0.176E+02
-20.848  0.173E+02
-20.847  0.171E+02
-20.846  0.170E+02
-20.845  0.168E+02
-20.844  0.167E+02
-20.843  0.166E+02
-20.842  0.164E+02
-20.841  0.163E+02
-20.840  0.181E+02
-20.839  0.211E+02
-20.838  0.246E+02
-20.837  0.310E+02
-20.836  0.362E+02
-20.835  0.403E+02
-20.834  0.419E+02
-20.833  0.417E+02
-20.832  0.415E+02
-20.831  0.412E+02
-20.830  0.319E+02
-20.829  0.321E+02
-20.828  0.322E+02
-20.827  0.314E+02
-20.826  0.307E+02
-20.825  0.299E+02
-20.824  0.323E+02
-20.823  0.307E+02
-20.822  0.294E+02
-20.821  0.282E+02
-20.820  0.270E+02
-20.819  0.258E+02
-20.818  0.245E+02
-20.817  0.233E+02
-20.816  0.221E+02
-20.815  0.215E+02
-20.814  0.212E+02
-20.813  0.212E+02
-20.812  0.272E+02
-20.811  0.272E+02
-20.810  0.271E+02
-20.809  0.274E+02
-20.808  0.277E+02
-20.807  0.280E+02
-20.806  0.282E+02
-20.805  0.285E+02
-20.804  0.287E+02
-20.803  0.290E+02
-20.802  0.292E+02
-20.801  0.295E+02
-20.800  0.298E+02
-20.799  0.240E+02
-20.798  0.240E+02
-20.797  0.241E+02
-20.796  0.241E+02
-20.795  0.241E+02
-20.794  0.241E+02
-20.793  0.242E+02
-20.792  0.243E+02
-20.791  0.210E+02
-20.790  0.194E+02
-20.789  0.178E+02
-20.788  0.161E+02
-20.787  0.145E+02
-20.786  0.128E+02
-20.785  0.112E+02
-20.784  0.962E+01
-20.783  0.820E+01
-20.782  0.808E+01
-20.781  0.821E+01
-20.780  0.834E+01
-20.779  0.848E+01
-20.778  0.860E+01
-20.777  0.519E+02
-20.776  0.391E+02
-20.775  0.262E+02
-20.774  0.250E+02
-20.773  0.239E+02
-20.772  0.227E+02
-20.771  0.232E+02
-20.770  0.237E+02
-20.769  0.243E+02
-20.768  0.248E+02
-20.767  0.254E+02
-20.766  0.259E+02
-20.765  0.265E+02
-20.764  0.272E+02
-20.763  0.278E+02
-20.762  0.285E+02
-20.761  0.292E+02
-20.760  0.298E+02
-20.759  0.229E+02
-20.758  0.227E+02
-20.757  0.224E+02
-20.756  0.222E+02
-20.755  0.220E+02
-20.754  0.217E+02
-20.753  0.215E+02
-20.752  0.213E+02
-20.751  0.210E+02
-20.750  0.208E+02
-20.749  0.206E+02
-20.748  0.203E+02
-20.747  0.178E+02
-20.746  0.176E+02
-20.745  0.173E+02
-20.744  0.170E+02
-20.743  0.168E+02
-20.742  0.218E+02
-20.741  0.238E+02
-20.740  0.258E+02
-20.739  0.279E+02
-20.738  0.300E+02
-20.737  0.321E+02
-20.736  0.342E+02
-20.735  0.363E+02
-20.734  0.386E+02
-20.733  0.253E+02
-20.732  0.252E+02
-20.731  0.252E+02
-20.730  0.251E+02
-20.729  0.251E+02
-20.728  0.250E+02
-20.727  0.249E+02
-20.726  0.249E+02
-20.725  0.248E+02
-20.724  0.247E+02
-20.723  0.246E+02
-20.722  0.245E+02
-20.721  0.244E+02
-20.720  0.244E+02
-20.719  0.243E+02
-20.718  0.242E+02
-20.717  0.241E+02
-20.716  0.240E+02
-20.715  0.239E+02
-20.714  0.241E+02
-20.713  0.243E+02
-20.712  0.246E+02
-20.711  0.249E+02
-20.710  0.252E+02
-20.709  0.255E+02
-20.708  0.258E+02
-20.707  0.261E+02
-20.706  0.264E+02
-20.705  0.267E+02
-20.704  0.270E+02
-20.703  0.274E+02
-20.702  0.277E+02
-20.701  0.319E+02
-20.700  0.318E+02
-20.699  0.316E+02
-20.698  0.315E+02
-20.697  0.313E+02
-20.696  0.312E+02
-20.695  0.311E+02
-20.694  0.309E+02
-20.693  0.307E+02
-20.692  0.306E+02
-20.691  0.312E+02
-20.690  0.312E+02
-20.689  0.337E+02
-20.688  0.335E+02
-20.687  0.333E+02
-20.686  0.330E+02
-20.685  0.328E+02
-20.684  0.326E+02
-20.683  0.324E+02
-20.682  0.322E+02
-20.681  0.320E+02
-20.680  0.318E+02
-20.679  0.314E+02
-20.678  0.311E+02
-20.677  0.305E+02
-20.676  0.296E+02
-20.675  0.288E+02
-20.674  0.280E+02
-20.673  0.272E+02
-20.672  0.267E+02
-20.671  0.263E+02
-20.670  0.260E+02
-20.669  0.256E+02
-20.668  0.253E+02
-20.667  0.249E+02
-20.666  0.246E+02
-20.665  0.242E+02
-20.664  0.238E+02
-20.663  0.283E+02
-20.662  0.265E+02
-20.661  0.208E+02
-20.660  0.196E+02
-20.659  0.185E+02
-20.658  0.173E+02
-20.657  0.162E+02
-20.656  0.151E+02
-20.655  0.139E+02
-20.654  0.132E+02
-20.653  0.130E+02
-20.652  0.128E+02
-20.651  0.126E+02
-20.650  0.124E+02
-20.649  0.121E+02
-20.648  0.120E+02
-20.647  0.122E+02
-20.646  0.124E+02
-20.645  0.126E+02
-20.644  0.128E+02
-20.643  0.131E+02
-20.642  0.133E+02
-20.641  0.135E+02
-20.640  0.137E+02
-20.639  0.140E+02
-20.638  0.142E+02
-20.637  0.144E+02
-20.636  0.146E+02
-20.635  0.148E+02
-20.634  0.148E+02
-20.633  0.148E+02
-20.632  0.149E+02
-20.631  0.149E+02
-20.630  0.236E+02
-20.629  0.329E+02
-20.628  0.332E+02
-20.627  0.335E+02
-20.626  0.338E+02
-20.625  0.342E+02
-20.624  0.342E+02
-20.623  0.329E+02
-20.622  0.315E+02
-20.621  0.302E+02
-20.620  0.289E+02
-20.619  0.276E+02
-20.618  0.272E+02
-20.617  0.260E+02
-20.616  0.261E+02
-20.615  0.266E+02
-20.614  0.271E+02
-20.613  0.277E+02
-20.612  0.292E+02
-20.611  0.307E+02
-20.610  0.328E+02
-20.609  0.357E+02
-20.608  0.387E+02
-20.607  0.410E+02
-20.606  0.239E+02
-20.605  0.245E+02
-20.604  0.251E+02
-20.603  0.258E+02
-20.602  0.264E+02
-20.601  0.270E+02
-20.600  0.277E+02
-20.599  0.283E+02
-20.598  0.287E+02
-20.597  0.291E+02
-20.596  0.295E+02
-20.595  0.299E+02
-20.594  0.303E+02
-20.593  0.307E+02
-20.592  0.311E+02
-20.591  0.315E+02
-20.590  0.319E+02
-20.589  0.319E+02
-20.588  0.320E+02
-20.587  0.300E+02
-20.586  0.274E+02
-20.585  0.245E+02
-20.584  0.177E+02
-20.583  0.125E+02
-20.582  0.124E+02
-20.581  0.122E+02
-20.580  0.121E+02
-20.579  0.120E+02
-20.578  0.119E+02
-20.577  0.118E+02
-20.576  0.116E+02
-20.575  0.150E+02
-20.574  0.156E+02
-20.573  0.163E+02
-20.572  0.170E+02
-20.571  0.176E+02
-20.570  0.183E+02
-20.569  0.190E+02
-20.568  0.195E+02
-20.567  0.198E+02
-20.566  0.255E+02
-20.565  0.331E+02
-20.564  0.406E+02
-20.563  0.260E+02
-20.562  0.253E+02
-20.561  0.247E+02
-20.560  0.240E+02
-20.559  0.234E+02
-20.558  0.227E+02
-20.557  0.221E+02
-20.556  0.214E+02
-20.555  0.208E+02
-20.554  0.201E+02
-20.553  0.240E+02
-20.552  0.307E+02
-20.551  0.341E+02
-20.550  0.337E+02
-20.549  0.331E+02
-20.548  0.325E+02
-20.547  0.319E+02
-20.546  0.313E+02
-20.545  0.307E+02
-20.544  0.301E+02
-20.543  0.295E+02
-20.542  0.289E+02
-20.541  0.283E+02
-20.540  0.277E+02
-20.539  0.246E+02
-20.538  0.247E+02
-20.537  0.248E+02
-20.536  0.248E+02
-20.535  0.249E+02
-20.534  0.249E+02
-20.533  0.250E+02
-20.532  0.269E+02
-20.531  0.353E+02
-20.530  0.344E+02
-20.529  0.335E+02
-20.528  0.326E+02
-20.527  0.313E+02
-20.526  0.297E+02
-20.525  0.285E+02
-20.524  0.273E+02
-20.523  0.262E+02
-20.522  0.254E+02
-20.521  0.246E+02
-20.520  0.238E+02
-20.519  0.228E+02
-20.518  0.218E+02
-20.517  0.285E+02
-20.516  0.277E+02
-20.515  0.268E+02
-20.514  0.260E+02
-20.513  0.252E+02
-20.512  0.243E+02
-20.511  0.233E+02
-20.510  0.222E+02
-20.509  0.214E+02
-20.508  0.209E+02
-20.507  0.204E+02
-20.506  0.199E+02
-20.505  0.196E+02
-20.504  0.198E+02
-20.503  0.202E+02
-20.502  0.207E+02
-20.501  0.211E+02
-20.500  0.216E+02
-20.499  0.221E+02
-20.498  0.226E+02
-20.497  0.231E+02
-20.496  0.236E+02
-20.495  0.242E+02
-20.494  0.247E+02
-20.493  0.252E+02
-20.492  0.257E+02
-20.491  0.263E+02
-20.490  0.268E+02
-20.489  0.272E+02
-20.488  0.280E+02
-20.487  0.275E+02
-20.486  0.272E+02
-20.485  0.269E+02
-20.484  0.266E+02
-20.483  0.263E+02
-20.482  0.260E+02
-20.481  0.257E+02
-20.480  0.254E+02
-20.479  0.244E+02
-20.478  0.233E+02
-20.477  0.223E+02
-20.476  0.213E+02
-20.475  0.202E+02
-20.474  0.194E+02
-20.473  0.188E+02
-20.472  0.183E+02
-20.471  0.186E+02
-20.470  0.186E+02
-20.469  0.191E+02
-20.468  0.198E+02
-20.467  0.206E+02
-20.466  0.214E+02
-20.465  0.222E+02
-20.464  0.229E+02
-20.463  0.238E+02
-20.462  0.245E+02
-20.461  0.253E+02
-20.460  0.261E+02
-20.459  0.269E+02
-20.458  0.267E+02
-20.457  0.264E+02
-20.456  0.246E+02
-20.455  0.228E+02
-20.454  0.210E+02
-20.453  0.206E+02
-20.452  0.201E+02
-20.451  0.197E+02
-20.450  0.195E+02
-20.449  0.192E+02
-20.448  0.190E+02
-20.447  0.188E+02
-20.446  0.186E+02
-20.445  0.179E+02
-20.444  0.180E+02
-20.443  0.180E+02
-20.442  0.180E+02
-20.441  0.181E+02
-20.440  0.181E+02
-20.439  0.182E+02
-20.438  0.182E+02
-20.437  0.182E+02
-20.436  0.182E+02
-20.435  0.185E+02
-20.434  0.194E+02
-20.433  0.203E+02
-20.432  0.211E+02
-20.431  0.211E+02
-20.430  0.212E+02
-20.429  0.213E+02
-20.428  0.213E+02
-20.427  0.214E+02
-20.426  0.221E+02
-20.425  0.222E+02
-20.424  0.223E+02
-20.423  0.224E+02
-20.422  0.223E+02
-20.421  0.224E+02
-20.420  0.224E+02
-20.419  0.224E+02
-20.418  0.264E+02
-20.417  0.261E+02
-20.416  0.259E+02
-20.415  0.256E+02
-20.414  0.254E+02
-20.413  0.251E+02
-20.412  0.249E+02
-20.411  0.247E+02
-20.410  0.287E+02
-20.409  0.286E+02
-20.408  0.284E+02
-20.407  0.283E+02
-20.406  0.282E+02
-20.405  0.281E+02
-20.404  0.317E+02
-20.403  0.314E+02
-20.402  0.310E+02
-20.401  0.306E+02
-20.400  0.303E+02
-20.399  0.299E+02
-20.398  0.295E+02
-20.397  0.292E+02
-20.396  0.288E+02
-20.395  0.285E+02
-20.394  0.277E+02
-20.393  0.267E+02
-20.392  0.258E+02
-20.391  0.247E+02
-20.390  0.237E+02
-20.389  0.235E+02
-20.388  0.280E+02
-20.387  0.328E+02
-20.386  0.377E+02
-20.385  0.192E+02
-20.384  0.191E+02
-20.383  0.189E+02
-20.382  0.192E+02
-20.381  0.191E+02
-20.380  0.190E+02
-20.379  0.189E+02
-20.378  0.188E+02
-20.377  0.188E+02
-20.376  0.191E+02
-20.375  0.194E+02
-20.374  0.198E+02
-20.373  0.204E+02
-20.372  0.210E+02
-20.371  0.215E+02
-20.370  0.221E+02
-20.369  0.227E+02
-20.368  0.233E+02
-20.367  0.239E+02
-20.366  0.244E+02
-20.365  0.250E+02
-20.364  0.256E+02
-20.363  0.262E+02
-20.362  0.268E+02
-20.361  0.380E+02
-20.360  0.661E+02
-20.359  0.281E+02
-20.358  0.284E+02
-20.357  0.219E+02
-20.356  0.217E+02
-20.355  0.217E+02
-20.354  0.216E+02
-20.353  0.220E+02
-20.352  0.227E+02
-20.351  0.233E+02
-20.350  0.240E+02
-20.349  0.246E+02
-20.348  0.252E+02
-20.347  0.259E+02
-20.346  0.265E+02
-20.345  0.272E+02
-20.344  0.278E+02
-20.343  0.285E+02
-20.342  0.295E+02
-20.341  0.306E+02
-20.340  0.291E+02
-20.339  0.272E+02
-20.338  0.253E+02
-20.337  0.190E+02
-20.336  0.168E+02
-20.335  0.147E+02
-20.334  0.129E+02
-20.333  0.130E+02
-20.332  0.130E+02
-20.331  0.131E+02
-20.330  0.132E+02
-20.329  0.132E+02
-20.328  0.133E+02
-20.327  0.152E+02
-20.326  0.203E+02
-20.325  0.255E+02
-20.324  0.306E+02
-20.323  0.158E+02
-20.322  0.162E+02
-20.321  0.166E+02
-20.320  0.170E+02
-20.319  0.174E+02
-20.318  0.177E+02
-20.317  0.181E+02
-20.316  0.185E+02
-20.315  0.189E+02
-20.314  0.193E+02
-20.313  0.197E+02
-20.312  0.201E+02
-20.311  0.205E+02
-20.310  0.209E+02
-20.309  0.249E+02
-20.308  0.248E+02
-20.307  0.249E+02
-20.306  0.247E+02
-20.305  0.245E+02
-20.304  0.243E+02
-20.303  0.245E+02
-20.302  0.243E+02
-20.301  0.241E+02
-20.300  0.239E+02
-20.299  0.237E+02
-20.298  0.235E+02
-20.297  0.233E+02
-20.296  0.231E+02
-20.295  0.230E+02
-20.294  0.229E+02
-20.293  0.228E+02
-20.292  0.227E+02
-20.291  0.226E+02
-20.290  0.225E+02
-20.289  0.224E+02
-20.288  0.223E+02
-20.287  0.222E+02
-20.286  0.221E+02
-20.285  0.220E+02
-20.284  0.219E+02
-20.283  0.218E+02
-20.282  0.218E+02
-20.281  0.217E+02
-20.280  0.217E+02
-20.279  0.217E+02
-20.278  0.217E+02
-20.277  0.216E+02
-20.276  0.216E+02
-20.275  0.216E+02
-20.274  0.214E+02
-20.273  0.235E+02
-20.272  0.257E+02
-20.271  0.278E+02
-20.270  0.300E+02
-20.269  0.322E+02
-20.268  0.344E+02
-20.267  0.365E+02
-20.266  0.390E+02
-20.265  0.297E+02
-20.264  0.254E+02
-20.263  0.247E+02
-20.262  0.241E+02
-20.261  0.301E+02
-20.260  0.276E+02
-20.259  0.251E+02
-20.258  0.226E+02
-20.257  0.201E+02
-20.256  0.176E+02
-20.255  0.155E+02
-20.254  0.152E+02
-20.253  0.149E+02
-20.252  0.146E+02
-20.251  0.142E+02
-20.250  0.139E+02
-20.249  0.136E+02
-20.248  0.133E+02
-20.247  0.130E+02
-20.246  0.133E+02
-20.245  0.144E+02
-20.244  0.154E+02
-20.243  0.164E+02
-20.242  0.175E+02
-20.241  0.185E+02
-20.240  0.195E+02
-20.239  0.204E+02
-20.238  0.209E+02
-20.237  0.214E+02
-20.236  0.219E+02
-20.235  0.224E+02
-20.234  0.229E+02
-20.233  0.234E+02
-20.232  0.308E+02
-20.231  0.361E+02
-20.230  0.361E+02
-20.229  0.358E+02
-20.228  0.358E+02
-20.227  0.359E+02
-20.226  0.358E+02
-20.225  0.358E+02
-20.224  0.358E+02
-20.223  0.273E+02
-20.222  0.267E+02
-20.221  0.261E+02
-20.220  0.255E+02
-20.219  0.248E+02
-20.218  0.242E+02
-20.217  0.236E+02
-20.216  0.230E+02
-20.215  0.224E+02
-20.214  0.218E+02
-20.213  0.211E+02
-20.212  0.205E+02
-20.211  0.202E+02
-20.210  0.202E+02
-20.209  0.203E+02
-20.208  0.203E+02
-20.207  0.203E+02
-20.206  0.204E+02
-20.205  0.206E+02
-20.204  0.207E+02
-20.203  0.209E+02
-20.202  0.210E+02
-20.201  0.207E+02
-20.200  0.203E+02
-20.199  0.204E+02
-20.198  0.214E+02
-20.197  0.224E+02
-20.196  0.234E+02
-20.195  0.244E+02
-20.194  0.254E+02
-20.193  0.264E+02
-20.192  0.275E+02
-20.191  0.293E+02
-20.190  0.311E+02
-20.189  0.329E+02
-20.188  0.349E+02
-20.187  0.320E+02
-20.186  0.291E+02
-20.185  0.262E+02
-20.184  0.233E+02
-20.183  0.223E+02
-20.182  0.219E+02
-20.181  0.218E+02
-20.180  0.366E+02
-20.179  0.570E+02
-20.178  0.276E+02
-20.177  0.275E+02
-20.176  0.273E+02
-20.175  0.272E+02
-20.174  0.270E+02
-20.173  0.201E+02
-20.172  0.194E+02
-20.171  0.188E+02
-20.170  0.181E+02
-20.169  0.174E+02
-20.168  0.167E+02
-20.167  0.161E+02
-20.166  0.160E+02
-20.165  0.159E+02
-20.164  0.159E+02
-20.163  0.158E+02
-20.162  0.157E+02