-21.943 0.00021775601 8.69677050569e-06 0.000104430767064 0.000104504729241
-21.942 0.00023765189 9.48967761489e-06 0.000114096219141 0.000114149801412
-21.941 0.00025960896 1.03686480338e-05 0.000124472763015 0.000124514811446
-21.94 0.000283136 1.13236848841e-05 0.00013593842057 0.000135904315743
-21.939 0.00030912063 1.23178481133e-05 0.000148363175157 0.000148312366214
-21.938 0.0003365664 1.34180807653e-05 0.000161751832654 0.000161565276527
-21.937 0.00036668048 1.46274399146e-05 0.000175984112264 0.000176030640974
-21.936 0.00039933631 1.59459256958e-05 0.000191844560148 0.000191887605226
-21.935 0.00043455635 1.73735409398e-05 0.000208632779086 0.000208774525781
-21.934 0.00047331376 1.89132258727e-05 0.000227230024499 0.000227307467341
-21.933 0.00051495992 2.05651034581e-05 0.0002473311955 0.000247246619406
-21.932 0.00056022081 2.23261105357e-05 0.000268860757174 0.000268871496877
-21.931 0.00060841998 2.43023103626e-05 0.00029235782178 0.000292144088653
-21.93 0.00066077331 2.63936402867e-05 0.00031740227316 0.00031732837624
-21.929 0.00071763577 2.87002259689e-05 0.00034470642146 0.00034476484132
-21.928 0.00077887261 3.11219473956e-05 0.00037417882278 0.00037391704632
-21.927 0.00084583334 3.37679250076e-05 0.00040603224114 0.00040610395752
-21.926 0.00091705529 3.66111583944e-05 0.00044003801565 0.00044024018594
-21.925 0.0009946619 3.97146034837e-05 0.00047732634315 0.00047756511056
-21.924 0.00107725802 4.2988340472e-05 0.00051715355023 0.00051730917229
-21.923 0.00116722694 4.66223485626e-05 0.00056006267541 0.00056013896733
-21.922 0.00126183432 5.04866881903e-05 0.00060652761879 0.00060668580958
-21.921 0.00136701644 5.46513596529e-05 0.00065662590726 0.00065571492314
-21.92 0.00147729089 5.9046632225e-05 0.00071028907425 0.00071042624182
-21.919 0.00159787382 6.39018167933e-05 0.00076790878076 0.0007681627219
-21.918 0.0017278081 6.90576634938e-05 0.0008301687626 0.00082974488331
-21.917 0.0018679053 7.4573511741e-05 0.00089590493507 0.00089664253192
-21.916 0.0020164762 8.05905922783e-05 0.00096735927811 0.00096814205296
-21.915 0.0021775604 8.69677050569e-05 0.00104430794063 0.00104504609041
-21.914 0.0023501541 9.38054801078e-05 0.00112730885896 0.00112726163918
-21.913 0.0025306737 0.000101173887792 0.00121607177082 0.00121537114336
-21.912 0.0027291588 0.000109072328174 0.00131038258136 0.00131050520497
-21.911 0.002943514 0.000117662001233 0.00141266973668 0.0014121043122
-21.91 0.0031657094 0.000126482367928 0.00152117579789 0.00152269008396
-21.909 0.0034111393 0.000136362736134 0.00163736715688 0.00163877199534
-21.908 0.0036687806 0.000146304399489 0.00176032189485 0.00176142239975
-21.907 0.0039492056 0.000157307298522 0.00189563213932 0.00189458850218
-21.906 0.0042457447 0.000169370287182 0.0020390935052 0.00203776470365
-21.905 0.0045621701 0.000182524514316 0.00219054389747 0.00219041178514
-21.904 0.0049024019 0.000195740032229 0.0023531837115 0.00235279779267
-21.903 0.0052581889 0.000210046214438 0.00252707944006 0.00252643690024
-21.902 0.0056514552 0.000225443666536 0.00271396360319 0.00271333808984
-21.901 0.006065362 0.000241931809921 0.00290894620212 0.00291204189649
-21.9 0.0065007295 0.000259541846888 0.0031199054276 0.0031201560352
-21.899 0.0069702218 0.000278242584649 0.003344620029 0.0033419553679
-21.898 0.0074616866 0.000298035216176 0.0035853634671 0.0035840954007
-21.897 0.0079982094 0.000319948545312 0.0038390823122 0.0038399815995
-21.896 0.0085601005 0.000341983768822 0.0041099838738 0.0041075977284
-21.895 0.009163046 0.000366110952738 0.0043972074044 0.0043981906683
-21.894 0.0097959427 0.000391539401228 0.0047051030223 0.0047028202203
-21.893 0.0104762932 0.000418969843928 0.0050276580192 0.0050298747134
-21.892 0.0111977423 0.000447402088165 0.0053762014054 0.0053730970175
-21.891 0.011954344 0.000478436445749 0.0057438251432 0.0057417591227
-21.89 0.0127856171 0.00051017261195 0.0061343421158 0.00613305196
-21.889 0.0136395016 0.000544211485221 0.0065403500411 0.0065413695793
-21.888 0.0145351874 0.000580553673139 0.00697648562 0.0069855649298
-21.887 0.0154890183 0.000619198572529 0.0074448624318 0.0074499416523
-21.886 0.016530321 0.000660844077099 0.0079375224163 0.0079355114269
-21.885 0.017615886 0.000703789602688 0.0084636143537 0.0084560929036
-21.884 0.018767071 0.000750041433345 0.0090106522561 0.0090041726224
-21.883 0.019984021 0.000798293285022 0.0095823384013 0.0095845040233
-21.882 0.021245818 0.000848851445426 0.0101984548895 0.0102025610963
-21.881 0.022633657 0.000902715923806 0.0108361551023 0.0108514511814
-21.88 0.024036794 0.000959880413911 0.0115401999387 0.0115413395196
-21.879 0.025530525 0.00102034552264 0.0122810625203 0.012259081771
-21.878 0.027094139 0.0010841166475 0.0130221397347 0.0130295913745
-21.877 0.028795597 0.00115419408995 0.0138239848847 0.0138296204811
-21.876 0.030559008 0.00122057185123 0.014675453789 0.0146741018898
-21.875 0.032464773 0.00129755593089 0.0155718465299 0.0155681475408
-21.874 0.034419994 0.00137454032444 0.0165101376042 0.0165196615538
-21.873 0.036438084 0.00145213707127 0.0175000495561 0.017510241097
-21.872 0.038620278 0.00153973439968 0.0185358959205 0.0185561631804
-21.871 0.040941692 0.00163823776577 0.0196377605397 0.019659584314
-21.87 0.04332006 0.00172674145468 0.0207943205834 0.0207931468978
-21.869 0.045841288 0.00182585778126 0.0220131383297 0.0220047089217
-21.868 0.048492786 0.0019355744105 0.0232704096001 0.0232686641058
-21.867 0.051263577 0.00204559737885 0.0246020311131 0.0245960022302
-21.866 0.054131443 0.0021662269774 0.0260065553293 0.0259894272147
-21.865 0.057163033 0.00228716891343 0.0274710549021 0.0274652208695
-21.864 0.060377476 0.00240871142987 0.0290137539864 0.0289961659845
-21.863 0.06374204 0.00255086030953 0.0306074913137 0.0305998832397
-21.862 0.067245851 0.00268361585903 0.032306419876 0.032279793165
-21.861 0.070936085 0.00283668370706 0.034055499664 0.034049590981
-21.86 0.074775832 0.00299065216185 0.035887646104 0.035900412837
-21.859 0.078743649 0.00314523332266 0.03780448886 0.037822723953
-21.858 0.08292251 0.00331042105441 0.039792253971 0.03983879799
-21.857 0.087346751 0.00348591543161 0.041907673613 0.041935697037
-21.856 0.091856015 0.00367112220253 0.044107106507 0.044116570394
-21.855 0.096619143 0.00385933584781 0.046384424335 0.046390868951
-21.854 0.101588739 0.00405755676595 0.048768213216 0.048783401819
-21.853 0.106758588 0.00426578885074 0.05126224314 0.051258996497
-21.852 0.112121166 0.00447702994237 0.053824373377 0.053835002575
-21.851 0.117800125 0.00470528008092 0.056486732696 0.056515727464
-21.85 0.123569779 0.00493653925218 0.059323572228 0.059361169863
-21.849 0.129582525 0.00517781049727 0.062237224105 0.062265787463
-21.848 0.135773035 0.00543209677564 0.065249680095 0.065278404283
-21.847 0.142513097 0.00569638613084 0.068384484337 0.068360420003
-21.846 0.149344888 0.00596066649298 0.071657576904 0.071690163723
-21.845 0.156181381 0.00624499195487 0.075014038584 0.075081062964
-21.844 0.163754256 0.00653231442706 0.078559548679 0.078605532316
-21.843 0.17125854 0.00683970000915 0.082247317887 0.082189940268
-21.842 0.1789458 0.00714702562439 0.085895906408 0.08592211133
-21.841 0.18710888 0.00747741125046 0.089740036244 0.089827282703
-21.84 0.19551302 0.00781779998289 0.093973173294 0.093879907486
-21.839 0.2044853 0.00816118878918 0.098062252257 0.098104257379
-21.838 0.21329966 0.00852157763761 0.102466320242 0.102321446884
-21.837 0.22265357 0.00889496652336 0.106869511438 0.106869393798
-21.836 0.23199274 0.00928141845657 0.111425762759 0.111457103823
-21.835 0.2420719 0.00967787048597 0.116084490182 0.116221814259
-21.834 0.25267743 0.0100843255953 0.121159537927 0.121192493005
-21.833 0.26306267 0.0105007807729 0.126152590702 0.126199302351
-21.832 0.27424909 0.010940295968 0.1314561956 0.131498843818
-21.831 0.28534027 0.0114328112629 0.136832592589 0.136830237496
-21.83 0.29650653 0.0118723296324 0.14229046281 0.142390134184
-21.829 0.30806253 0.0123178480485 0.148020817153 0.147981443982
-21.828 0.32072066 0.0127603665666 0.153886662608 0.153990168001
-21.827 0.33318519 0.0133059480869 0.160022766374 0.160009656121
-21.826 0.34617463 0.0138515297961 0.166242421162 0.166106019241
-21.825 0.35942933 0.0144001144885 0.172563278192 0.172436113662
-21.824 0.37293359 0.0148486992002 0.178964479244 0.178960959383
-21.823 0.3866496 0.0154003440287 0.185667724518 0.185621149005
-21.822 0.40112799 0.0160519918696 0.192398039993 0.192544702827
-21.821 0.41603813 0.0166036371549 0.19951079248 0.19959365465
-21.82 0.43012423 0.0171582878289 0.206660911269 0.206662008773
-21.819 0.44563045 0.0178129962073 0.21398351457 0.213966148097
-21.818 0.46187396 0.0184707075495 0.221601404993 0.221546968521
-21.817 0.47725049 0.0190284216229 0.229326385507 0.229141372946
-21.816 0.49336863 0.0196891329674 0.23712605404 0.236993539772
-21.815 0.5102707 0.0203469074069 0.245187533583 0.245054244498
-21.814 0.52743642 0.0211106848174 0.253084290328 0.253288763325
-21.813 0.54516488 0.0217714595049 0.261495233093 0.261436154452
-21.812 0.56223039 0.0224352369651 0.269964821959 0.270105482679
-21.811 0.58047987 0.0232020176894 0.278809178836 0.278629742007
-21.81 0.59877647 0.0238688554436 0.287370917715 0.287371086436
-21.809 0.61727766 0.0246356962177 0.296371498795 0.296281588165
-21.808 0.63678732 0.0254025400398 0.305455093904 0.305484181694
-21.807 0.65573788 0.0261723811553 0.3145478551 0.31465277372
-21.806 0.67473632 0.0269422849302 0.32390002431 0.32394643965
-21.805 0.69517566 0.027715129065 0.33369711955 0.33345567769
-21.804 0.71501033 0.0285880362311 0.34302180199 0.34320232782
-21.803 0.73505584 0.0293609433134 0.35276578231 0.35281681325
-21.802 0.75549803 0.030133910545 0.36285341575 0.36266460868
-21.801 0.77649473 0.0310098176878 0.37273714821 0.37279594931
-21.8 0.79767922 0.0318857848642 0.38277459186 0.38284455725
-21.799 0.81812685 0.0326646953335 0.39278535651 0.39275480798
-21.798 0.83981346 0.0335376655387 0.40313688004 0.40309704731
-21.797 0.86116828 0.0344286363205 0.41364596876 0.41363266205
-21.796 0.88356892 0.0352896064907 0.42403890956 0.42434551078
-21.795 0.90574849 0.0361805800865 0.43458636128 0.43483655151
-21.794 0.92710577 0.0370716105624 0.44505829509 0.44538074925
-21.793 0.94907393 0.0379325841045 0.45585671591 0.45582178298
-21.792 0.97232532 0.0388236176476 0.46670060274 0.46671506472
-21.791 0.99466441 0.0397146034837 0.47752763855 0.47780878845
-21.79 1.01728615 0.0405756277199 0.48804074446 0.48832833219
-21.789 1.04003967 0.0415665925564 0.49885799639 0.49905725802
-21.788 1.06174264 0.0424576170451 0.50971676721 0.50992943976
-21.787 1.0847279 0.043318671941 0.52070934023 0.52069335949
-21.786 1.10732138 0.0442096364237 0.53138695116 0.53166387123
-21.785 1.12977684 0.0451006610264 0.54240595199 0.54232938707
-21.784 1.15244753 0.0460617155036 0.5532645738 0.5533287868
-21.783 1.17542859 0.0469526804297 0.56402943572 0.56434675854
-21.782 1.19774994 0.0478437049125 0.57470758754 0.57483825427
-21.781 1.2203977 0.0487046992143 0.58575388845 0.58539443611
-21.78 1.24289431 0.0495957239904 0.59616465918 0.59606740384
-21.779 1.2660566 0.0504866885269 0.606978812 0.60693701158
-21.778 1.28533331 0.0513476527327 0.6173660029 0.61756728931
-21.777 1.3075737 0.0522386475083 0.62789553361 0.62833906904
-21.776 1.32979518 0.0530996117441 0.63788120442 0.63759311378
-21.775 1.35087756 0.0539905762139 0.64802874413 0.64827019941
-21.774 1.37010284 0.0547515403922 0.65806875461 0.65856749714
-21.773 1.39119211 0.0556424445998 0.66825625573 0.66870348088
-21.772 1.41246246 0.05640334876 0.67823720381 0.67792856451
-21.771 1.43423003 0.0572942528482 0.68797572299 0.68796589924
-21.77 1.45159185 0.0580553369769 0.69734968198 0.69781464087
-21.769 1.47278017 0.0588160010951 0.70684084195 0.7065308546
-21.768 1.49001269 0.0596066649178 0.71590590902 0.71614577523
-21.767 1.5099143 0.060367928705 0.72478978608 0.72475071686
-21.766 1.52965411 0.0610285924678 0.73398666605 0.73371973739
-21.765 1.54586512 0.0617892558764 0.74219668191 0.74194373802
-21.764 1.56189722 0.0624499198488 0.75056813795 0.75103918964
-21.763 1.58088673 0.0631111533174 0.75829400489 0.75847664017
-21.762 1.59566573 0.0637718163297 0.76654218071 0.76595973869
-21.761 1.61338202 0.0644324797621 0.77403717566 0.77452922522
-21.76 1.62825422 0.0649931127617 0.78065992036 0.78172509174
-21.759 1.6418935 0.0656537757735 0.78757504417 0.78828946027
-21.758 1.6559806 0.0661844084728 0.79438997798 0.79477941679
-21.757 1.6687381 0.0667450711722 0.80150044967 0.80106968121
-21.756 1.6817544 0.067205704081 0.80813978334 0.80742710763
-21.755 1.6932344 0.0677357367131 0.81456803502 0.81332967105
-21.754 1.7060695 0.0681663689555 0.81891577659 0.81890836547
-21.753 1.7172645 0.068627001198 0.82441020714 0.82430260678
-21.752 1.7271478 0.0690576331638 0.83016369779 0.8294622291
-21.751 1.7381321 0.0693876653336 0.83382258533 0.83406691051
-21.75 1.747235 0.0697182969324 0.83898493375 0.83853891173
-21.749 1.7535369 0.0700489287959 0.84193208117 0.84206316104
-21.748 1.7619315 0.0703789602748 0.84641342958 0.84576438025
-21.747 1.7696566 0.0707095914056 0.84907099596 0.84952218546
-21.746 1.7748405 0.0709395928841 0.85066509226 0.85182017267
-21.745 1.7814542 0.071139623714 0.85482957553 0.85395039988
-21.744 1.7845156 0.0712702248133 0.8561334918 0.85664833399
-21.743 1.7877279 0.0714702555829 0.85781922393 0.85826894919
-21.742 1.7897101 0.0715702563099 0.85900255709 0.8592562313
-21.741 1.7936767 0.0716002563468 0.86132990831 0.8610712733
-21.74 1.7953193 0.0717002570071 0.86202384033 0.8614930254
-21.739 1.7957399 0.0717002570432 0.86205639133 0.8622412764
-21.738 1.7957399 0.0717002570372 0.86205039033 0.8622392364
-21.737 1.7947085 0.0717002567068 0.86159880033 0.8614722254
-21.736 1.7936701 0.0716002563468 0.8613005382 0.8600196433
-21.735 1.7893329 0.0714702555832 0.85869736507 0.85913793119
-21.734 1.7860586 0.0713702251743 0.85701704392 0.85763179609
-21.733 1.7826127 0.0712402244164 0.85563731965 0.85610346198
-21.732 1.7760748 0.0710396235745 0.8542893635 0.85292059478
-21.731 1.7732762 0.0708095921806 0.84972977012 0.85079436967
-21.73 1.7647721 0.0704789610446 0.84791495283 0.84706414336
-21.729 1.76036 0.0702789595718 0.84524027642 0.84464035415
-21.728 1.7501222 0.0699483280324 0.84055584891 0.84036103493
-21.727 1.7419969 0.0696182961695 0.8375224215 0.83609619562
-21.726 1.7346577 0.0692876646297 0.83252351207 0.83271607531
-21.725 1.7238569 0.0688270323282 0.82688024253 0.82742601399
-21.724 1.7135862 0.0683970000918 0.82300616198 0.82226113267
-21.723 1.702031 0.0679663678616 0.81702497232 0.81689378826
-21.722 1.6903752 0.0675057352532 0.81061138075 0.81170345584
-21.721 1.6776111 0.0669750729505 0.80415631907 0.80533640042
-21.72 1.6645942 0.0665144403117 0.79971957638 0.798837246
-21.719 1.6520189 0.0659838076423 0.79298885359 0.79264534948
-21.718 1.63754557 0.0653231442706 0.78539695887 0.78585653105
-21.717 1.62063608 0.0647625116375 0.77801529507 0.77795606653
-21.716 1.60543409 0.0641018482655 0.77078518025 0.77055771801
-21.715 1.59040159 0.0634411848569 0.76311675343 0.76329182948
-21.714 1.57201359 0.0627805515392 0.75515493949 0.75484024096
-21.713 1.55684819 0.0621198880768 0.74707342255 0.74684018033
-21.712 1.53788508 0.0614592246142 0.73849859568 0.7390259107
-21.711 1.52044107 0.0606979608689 0.72988598763 0.72993773817
-21.71 1.50115546 0.0600372971656 0.72102265066 0.72130467654
-21.709 1.48387104 0.0592766330849 0.71191423271 0.71215137592
-21.708 1.46320263 0.0584853995854 0.70267953464 0.70236757429
-21.707 1.44606791 0.057724735444 0.69338224554 0.69362467155
-21.706 1.42503309 0.0568638613084 0.68384623657 0.68360289792
-21.705 1.40393746 0.0560729571365 0.67410427738 0.67490515419
-21.704 1.38173049 0.0553120526949 0.66386087729 0.66420371156
-21.703 1.36375674 0.0544210885221 0.6539945372 0.65391006583
-21.702 1.34173716 0.0535601843463 0.64386501619 0.64374921609
-21.701 1.31923948 0.0527692198467 0.63353374638 0.63400462836
-21.7 1.29707887 0.0519082553709 0.62333846558 0.62360435263
-21.699 1.27789218 0.051017260835 0.61300924486 0.61282545489
-21.698 1.2556149 0.0501562965929 0.60238102296 0.60206396516
-21.697 1.23252219 0.0492652721164 0.59117398213 0.59112423742
-21.696 1.21047356 0.0483743072803 0.58076560043 0.58122050969
-21.695 1.18811083 0.0475132530385 0.5700725695 0.57020196995
-21.694 1.16515155 0.0465222882017 0.55951638768 0.55956001022
-21.693 1.14273479 0.0456312636598 0.54828880676 0.54849417238
-21.692 1.1207413 0.0447702088165 0.53766477393 0.53749921065
-21.691 1.09715934 0.0438792445743 0.52707582331 0.52681290091
-21.69 1.07505746 0.0428882197433 0.51581840131 0.51602684318
-21.689 1.05214 0.0419971651705 0.50480579937 0.50508711334
-21.688 1.02945786 0.0411362003284 0.49415465766 0.49432953161
-21.687 1.00766387 0.0402451757919 0.48332770674 0.48366391187
-21.686 0.98474393 0.0393542112491 0.47285131481 0.47282409214
-21.685 0.96208987 0.0384931657073 0.46221018698 0.4620904884
-21.684 0.94009748 0.0375021921765 0.45139242409 0.45124553657
-21.683 0.91810562 0.0366111586947 0.44074026326 0.44066082483
-21.682 0.89607697 0.0357501880985 0.43036034045 0.4300150161
-21.681 0.874186 0.0348592176227 0.41979503784 0.41957770436
-21.68 0.85289882 0.0340982441769 0.40944397903 0.40907169663
-21.679 0.83052968 0.0332072736407 0.39915193943 0.3986328599
-21.678 0.809195 0.0323313064661 0.38864670578 0.38852414746
-21.677 0.78791657 0.0314523362932 0.37838209114 0.37830026573
-21.676 0.76752081 0.0306794287899 0.36811841958 0.3684570838
-21.675 0.74623077 0.0298035216176 0.35853964723 0.35841180666
-21.674 0.72618584 0.0290305544754 0.34859342559 0.34841295453
-21.673 0.70607664 0.0281576473635 0.33910721535 0.3389309411
-21.672 0.68624597 0.0273848032279 0.32934737494 0.32933297897
-21.671 0.66634273 0.0266118991532 0.31975340171 0.31990800414
-21.67 0.64746369 0.0258420552888 0.3106075485 0.31076031301
-21.669 0.62799053 0.0250751514901 0.3013409513 0.30155355228
-21.668 0.60883664 0.0243053107292 0.292481458305 0.29259701475
-21.667 0.59106788 0.0236385296558 0.283959047217 0.283853458022
-21.666 0.57271295 0.0228746922015 0.274807651338 0.274753756893
-21.665 0.55477527 0.0222079144466 0.266346274471 0.266420338465
-21.664 0.53681968 0.0214440767228 0.258093253695 0.258028833338
-21.663 0.52028078 0.0207833592766 0.24968679595 0.249764004311
-21.662 0.50334793 0.0201225849255 0.241772271297 0.241686171385
-21.661 0.48655446 0.0194618104853 0.233580687764 0.233618836659
-21.66 0.4707278 0.0188040991424 0.225777973137 0.225934161034
-21.659 0.45501307 0.0181463850516 0.218336440724 0.218333788609
-21.658 0.43922549 0.0175916766848 0.210702472411 0.210832413385
-21.657 0.42383567 0.0169340256569 0.203551919801 0.203419533061
-21.656 0.40978593 0.0163823776643 0.196647717112 0.196648666138
-21.655 0.3949224 0.0157307298522 0.189562262637 0.189459541216
-21.654 0.38112769 0.0151790847476 0.182818392163 0.182746253394
-21.653 0.36687921 0.0146274399482 0.176008558999 0.176098026672
-21.652 0.35355014 0.0140788552216 0.169623442888 0.169689087251
-21.651 0.34048055 0.0136332735682 0.163349083989 0.163395034031
-21.65 0.32775994 0.0130876919803 0.157169044312 0.157416560711
-21.649 0.31565491 0.0126421704567 0.151470901547 0.151344202692
-21.648 0.30323503 0.0120965920061 0.145508849193 0.145466912893
-21.647 0.2916539 0.0116540736141 0.139980927771 0.139951069095
-21.646 0.27993729 0.0112145552831 0.13458124576 0.134425342417
-21.645 0.26900849 0.0107551000265 0.129241852752 0.12912247875
-21.644 0.25823645 0.0103255848342 0.123996106776 0.124074401983
-21.643 0.24817949 0.00990912972419 0.118988667131 0.119043891837
-21.642 0.23798629 0.00949967761793 0.114126746571 0.114205350091
-21.641 0.2282056 0.00910622562225 0.109536037158 0.109506518666
-21.64 0.21837735 0.00873283366318 0.104961080949 0.104933187951
-21.639 0.20946484 0.00836938481292 0.100470953763 0.100495776937
-21.638 0.20051977 0.00800599600416 0.096352072774 0.096300084843
-21.637 0.19185778 0.0076656072357 0.092066110311 0.092155496849
-21.636 0.18352505 0.00733522157236 0.088062167463 0.088167915276
-21.635 0.17580448 0.00701489288083 0.08424776563 0.084278124104
-21.634 0.16785712 0.00670750733174 0.080690415219 0.080595726042
-21.633 0.160497479 0.00641018482232 0.077031796123 0.07703746439
-21.632 0.153335665 0.00612586231716 0.073565825031 0.073577882149
-21.631 0.146301693 0.00584853689253 0.070242536461 0.070204243018
-21.63 0.139752057 0.00557426552976 0.067016621997 0.067034192288
-21.629 0.133185403 0.00532297324483 0.063969397805 0.063975202878
-21.628 0.126990843 0.00506869596592 0.060967492016 0.060906962568
-21.627 0.121047363 0.00483743072803 0.058076839253 0.058122957769
-21.626 0.115324507 0.00460617155939 0.05534951972 0.05537401367
-21.625 0.109716241 0.00438792445866 0.052714556462 0.052684545091
-21.624 0.104474266 0.00417968637307 0.050181216407 0.050189991213
-21.623 0.09946754 0.00397146034837 0.047752901494 0.047781068845
-21.622 0.094609077 0.00378323913334 0.045382754535 0.045383784177
-21.621 0.089918679 0.00359503178627 0.043148698729 0.04317517562
-21.62 0.085439487 0.00340983108441 0.041012088045 0.041031101273
-21.619 0.081147277 0.0032437372797 0.038954906134 0.038942024386
-21.618 0.07706412 0.0030788558521 0.036960490326 0.03698661297
-21.617 0.073107499 0.00292458073047 0.035071457081 0.035094341424
-21.616 0.069364896 0.00277091256978 0.033266963262 0.033285220198
-21.615 0.065741107 0.0026278507218 0.031569455277 0.031552817542
-21.614 0.062327232 0.00248569553722 0.0298793015361 0.0299076263271
-21.613 0.059089153 0.00235354695891 0.0283179347193 0.028329682592
-21.612 0.055883896 0.00223230472213 0.0268450220473 0.0268312504071
-21.611 0.052917452 0.0021113748138 0.0253820880887 0.0253834205824
-21.61 0.050015972 0.00200104551946 0.0240203634737 0.024023740908
-21.609 0.047325455 0.00189132258427 0.022721884182 0.0227289002238
-21.608 0.044712829 0.00179190622695 0.0214723836223 0.0214803539497
-21.607 0.042302143 0.00169309623343 0.0202975883273 0.0203053624559
-21.606 0.039927389 0.00159459256639 0.0191549801649 0.0191735666822
-21.605 0.037723096 0.00150638920353 0.018100590866 0.0181076986787
-21.604 0.035557459 0.00141879817769 0.0170586220008 0.0170790212154
-21.603 0.033553674 0.00134150776495 0.0161036727822 0.0161023664723
-21.602 0.031625909 0.00126451736889 0.0151724608101 0.0151759132993
-21.601 0.029834762 0.00118783929385 0.0143102451815 0.0143180723515
-21.6 0.028082454 0.00112176183978 0.0134714731193 0.0134761812638
-21.599 0.026435213 0.00105568440431 0.0126996034606 0.0126986779782
-21.598 0.0248841 0.000994213287811 0.0119641859585 0.0119470887758
-21.597 0.023382756 0.000934748486299 0.0112333549986 0.0112414832665
-21.596 0.022031971 0.000879590000041 0.0105652248634 0.0105677053593
-21.595 0.020702168 0.0008270255293 0.0099434736724 0.0099329383152
-21.594 0.019439841 0.000776473675259 0.0093351107847 0.0093358529633
-21.593 0.018254695 0.000729221831272 0.0087717505519 0.0087650777135
-21.592 0.017137856 0.00068497000495 0.0082348407709 0.0082303626257
-21.591 0.0160801302 0.000642324489385 0.0077236013538 0.0077178360101
-21.59 0.0150881202 0.000602679282964 0.0072426378006 0.0072416695365
-21.589 0.0141520651 0.000565334693724 0.0067899952002 0.006790523965
-21.588 0.0132757028 0.000529994609793 0.0063661270426 0.0063659339357
-21.587 0.0124229709 0.000495957239904 0.0059596620257 0.0059606984173
-21.586 0.0116257468 0.000464221677969 0.0055807080754 0.0055824942201
-21.585 0.0108774271 0.000434487926466 0.0052238933559 0.005222999656
-21.584 0.0101853665 0.000406756883205 0.0048876348829 0.0048876536219
-21.583 0.009526909 0.000380327107727 0.0045681032095 0.0045697047299
-21.582 0.0089013804 0.000355199290142 0.0042706737446 0.0042724357189
-21.581 0.0083150517 0.000332102769422 0.0039923695874 0.003990535229
-21.58 0.0077651304 0.00031009817689 0.0037274150476 0.0037285959732
-21.579 0.0072484375 0.000289244884436 0.0034804340859 0.0034790458984
-21.578 0.0067631735 0.000270483512921 0.0032459354201 0.0032478491196
-21.577 0.0063111953 0.000251842809213 0.00302861480234 0.00302879418494
-21.576 0.0058822554 0.000235294032378 0.00282233586899 0.00282324854929
-21.575 0.0054758463 0.000218835922363 0.00263109943144 0.00263049791768
-21.574 0.0051030518 0.000203499074069 0.00245194884159 0.00245068193512
-21.573 0.0047551867 0.000190222921997 0.00228267818441 0.0022825040196
-21.572 0.0044253977 0.000177008664217 0.00212410336283 0.00212362410512
-21.571 0.0041153498 0.000164914442622 0.00197654262379 0.00197560615968
-21.57 0.0038244289 0.000152851512842 0.00183785790426 0.00183702225127
-21.569 0.0035558131 0.000141879818069 0.00170589184164 0.00170836883189
-21.568 0.0033095893 0.000131968215471 0.00158729925834 0.00158828911855
-21.567 0.0030702611 0.000122117817724 0.00147282135085 0.00147430897265
-21.566 0.0028522205 0.000114327512617 0.00136826930326 0.00136808028427
-21.565 0.0026431617 0.000105568440431 0.00126996047958 0.00126856400844
-21.564 0.0024505866 9.79700012077e-05 0.00117676607369 0.00117740668613
-21.563 0.002273003 9.08322249833e-05 0.0010911224524 0.00109121485826
-21.562 0.0021068766 8.41244807379e-05 0.00101137350789 0.00101069806682
-21.561 0.0019519224 7.79773690593e-05 0.00093610671016 0.00093719382672
-21.56 0.0018072067 7.21308896456e-05 0.00086625419096 0.00086797675106
-21.559 0.0016731985 6.67450717845e-05 0.00080240312346 0.00080304242473
-21.558 0.00154590265 6.1789256237e-05 0.00074260600347 0.00074217645174
-21.557 0.00142932254 5.71641320843e-05 0.00068641130321 0.0006866318071
-21.556 0.0013210717 5.27992802196e-05 0.00063469060959 0.00063485172681
-21.555 0.00122158205 4.88347598152e-05 0.00058606160499 0.00058578634276
-21.554 0.00112728841 4.50706005929e-05 0.00054138050757 0.00054115215608
-21.553 0.00104096643 4.15667129293e-05 0.00049967196401 0.00049954265965
-21.552 0.00096054741 3.83630993398e-05 0.0004609308844 0.00046116594939
-21.551 0.00088557602 3.54197362486e-05 0.00042536694645 0.00042531004851
-21.55 0.00081686488 3.26556289353e-05 0.00039238783399 0.00039218417331
-21.549 0.00075232924 3.0024780779e-05 0.00036107353799 0.0003612199357
-21.548 0.00069331909 2.77090656978e-05 0.00033264763038 0.0003328321096
-21.547 0.00063849451 2.55116067019e-05 0.00030637999629 0.00030639046661
-21.546 0.00058708469 2.34263398643e-05 0.00028188917153 0.00028208588835
-21.545 0.00054059572 2.15562064543e-05 0.00025909225209 0.0002592644081
-21.544 0.00049701049 1.97982623977e-05 0.00023856465641 0.0002383340274
-21.543 0.00045632347 1.82524514316e-05 0.00021912922291 0.0002192447563
-21.542 0.00041930145 1.67188298984e-05 0.00020132653007 0.0002014970549
-21.541 0.00038520373 1.53942778294e-05 0.00018499646731 0.0001848905647
-21.54 0.00035358233 1.40788552216e-05 0.00016962429168 0.0001697015915
-21.539 0.00032465143 1.29755593089e-05 0.0001557203323 0.0001556848043
-21.538 0.00029718824 1.18783328286e-05 0.0001429325625 0.0001427986138
-21.537 0.00027285255 1.08972327748e-05 0.000130801947 0.0001308713277
-21.536 0.00025030061 9.98519607116e-06 0.0001199417385 0.000119989783
-21.535 0.00022901562 9.14928877917e-06 0.0001097669017 0.0001098723252
-21.534 0.00020954176 8.36938485262e-06 0.0001005553843 0.0001005512824
-21.533 0.00019175528 7.66560719784e-06 9.19771032e-05 9.20592905e-05
-21.532 0.00017529613 7.0048928802e-06 8.41744286e-05 8.42072465e-05
-21.531 0.000160467996 6.41018478692e-06 7.7026284e-05 7.70023374e-05
-21.53 0.000146464643 5.86159996164e-06 7.03846776e-05 7.04360064e-05
-21.529 0.000133974848 5.35600636255e-06 6.42914465e-05 6.42627922e-05
-21.528 0.000122311455 4.88348798838e-06 5.87217715e-05 5.87638427e-05
-21.527 0.000111676353 4.46400880525e-06 5.36048528e-05 5.35842239e-05
-21.526 0.000101858254 4.06756883339e-06 4.89075081e-05 4.88830888e-05
-21.525 9.2864297e-05 3.70716768773e-06 4.46080235e-05 4.45791834e-05
-21.524 8.4660515e-05 3.386798801e-06 4.06423388e-05 4.06410645e-05
-21.523 7.7180609e-05 3.07916218606e-06 3.70421252e-05 3.70575089e-05
-21.522 7.0280445e-05 2.80425176044e-06 3.37428753e-05 3.37419902e-05
-21.521 6.3960121e-05 2.55146697854e-06 3.07323606e-05 3.07099e-05
-21.52 5.8225481e-05 2.32081441034e-06 2.79594631e-05 2.79544821e-05
-21.519 5.2974133e-05 2.11167511851e-06 2.54459335e-05 2.54325777e-05
-21.518 4.8202458e-05 1.92436147311e-06 2.31277816e-05 2.31242783e-05
-21.517 4.3786194e-05 1.7485610369e-06 2.10271343e-05 2.10179273e-05
-21.516 3.9760159e-05 1.58398592002e-06 1.90845375e-05 1.90855728e-05
-21.515 3.6137559e-05 1.44061807458e-06 1.73594909e-05 1.7356224e-05
-21.514 3.2793852e-05 1.30876920465e-06 1.57554433e-05 1.57568265e-05
-21.513 2.9740479e-05 1.18753328531e-06 1.42840479e-05 1.42924654e-05
-21.512 2.702384e-05 1.07651002059e-06 1.29586644e-05 1.2967648e-05
-21.511 2.4480252e-05 9.76394004895e-07 1.1769122e-05 1.17544177e-05
-21.51 2.222975e-05 8.85196335324e-07 1.06623332e-05 1.06564656e-05
-21.509 2.0135922e-05 8.01599612812e-07 9.6647864e-06 9.6616606e-06
-21.508 1.8245457e-05 7.25615525659e-07 8.7534567e-06 8.7605697e-06
-21.507 1.6512571e-05 6.56537775531e-07 7.9409188e-06 7.9301379e-06
-21.506 1.4955692e-05 5.93766656005e-07 7.1870163e-06 7.180858e-06
-21.505 1.3568287e-05 5.37603966659e-07 6.508868e-06 6.507756e-06
-21.504 1.2278615e-05 4.86045507072e-07 5.895378e-06 5.890687e-06
-21.503 1.1114388e-05 4.38793067873e-07 5.339299e-06 5.33753e-06
-21.502 1.0065999e-05 3.96846054104e-07 4.837473e-06 4.838515e-06
-21.501 9.130545e-06 3.58502629964e-07 4.382281e-06 4.383998e-06
-21.5 8.271435e-06 3.23313783929e-07 3.974397e-06 3.977786e-06
-21.499 7.502383e-06 2.91458227847e-07 3.607437e-06 3.608415e-06
-21.498 6.812286e-06 2.62876496253e-07 3.276974e-06 3.276058e-06
-21.497 6.194638e-06 2.37537419681e-07 2.981736e-06 2.979107e-06
-21.496 5.641532e-06 2.14441532504e-07 2.717248e-06 2.717072e-06