# E (eV) pdos(E) 
-21.943  0.722E-04
-21.942  0.789E-04
-21.941  0.861E-04
-21.940  0.939E-04
-21.939  0.102E-03
-21.938  0.112E-03
-21.937  0.122E-03
-21.936  0.133E-03
-21.935  0.144E-03
-21.934  0.157E-03
-21.933  0.171E-03
-21.932  0.186E-03
-21.931  0.202E-03
-21.930  0.219E-03
-21.929  0.238E-03
-21.928  0.259E-03
-21.927  0.281E-03
-21.926  0.304E-03
-21.925  0.330E-03
-21.924  0.357E-03
-21.923  0.387E-03
-21.922  0.419E-03
-21.921  0.454E-03
-21.920  0.491E-03
-21.919  0.531E-03
-21.918  0.573E-03
-21.917  0.620E-03
-21.916  0.669E-03
-21.915  0.722E-03
-21.914  0.779E-03
-21.913  0.840E-03
-21.912  0.906E-03
-21.911  0.976E-03
-21.910  0.105E-02
-21.909  0.113E-02
-21.908  0.122E-02
-21.907  0.131E-02
-21.906  0.141E-02
-21.905  0.151E-02
-21.904  0.163E-02
-21.903  0.175E-02
-21.902  0.187E-02
-21.901  0.201E-02
-21.900  0.216E-02
-21.899  0.231E-02
-21.898  0.248E-02
-21.897  0.265E-02
-21.896  0.284E-02
-21.895  0.304E-02
-21.894  0.325E-02
-21.893  0.348E-02
-21.892  0.372E-02
-21.891  0.397E-02
-21.890  0.424E-02
-21.889  0.452E-02
-21.888  0.483E-02
-21.887  0.515E-02
-21.886  0.549E-02
-21.885  0.584E-02
-21.884  0.622E-02
-21.883  0.663E-02
-21.882  0.705E-02
-21.881  0.750E-02
-21.880  0.797E-02
-21.879  0.847E-02
-21.878  0.900E-02
-21.877  0.956E-02
-21.876  0.101E-01
-21.875  0.108E-01
-21.874  0.114E-01
-21.873  0.121E-01
-21.872  0.128E-01
-21.871  0.136E-01
-21.870  0.144E-01
-21.869  0.152E-01
-21.868  0.161E-01
-21.867  0.170E-01
-21.866  0.180E-01
-21.865  0.190E-01
-21.864  0.200E-01
-21.863  0.212E-01
-21.862  0.223E-01
-21.861  0.235E-01
-21.860  0.248E-01
-21.859  0.261E-01
-21.858  0.275E-01
-21.857  0.290E-01
-21.856  0.305E-01
-21.855  0.321E-01
-21.854  0.337E-01
-21.853  0.354E-01
-21.852  0.372E-01
-21.851  0.391E-01
-21.850  0.410E-01
-21.849  0.430E-01
-21.848  0.451E-01
-21.847  0.473E-01
-21.846  0.495E-01
-21.845  0.519E-01
-21.844  0.543E-01
-21.843  0.568E-01
-21.842  0.594E-01
-21.841  0.621E-01
-21.840  0.649E-01
-21.839  0.678E-01
-21.838  0.708E-01
-21.837  0.739E-01
-21.836  0.770E-01
-21.835  0.803E-01
-21.834  0.837E-01
-21.833  0.872E-01
-21.832  0.908E-01
-21.831  0.946E-01
-21.830  0.984E-01
-21.829  0.102E+00
-21.828  0.106E+00
-21.827  0.111E+00
-21.826  0.115E+00
-21.825  0.119E+00
-21.824  0.124E+00
-21.823  0.128E+00
-21.822  0.133E+00
-21.821  0.138E+00
-21.820  0.143E+00
-21.819  0.148E+00
-21.818  0.153E+00
-21.817  0.158E+00
-21.816  0.164E+00
-21.815  0.169E+00
-21.814  0.175E+00
-21.813  0.181E+00
-21.812  0.187E+00
-21.811  0.193E+00
-21.810  0.199E+00
-21.809  0.205E+00
-21.808  0.211E+00
-21.807  0.217E+00
-21.806  0.224E+00
-21.805  0.230E+00
-21.804  0.237E+00
-21.803  0.244E+00
-21.802  0.251E+00
-21.801  0.258E+00
-21.800  0.265E+00
-21.799  0.272E+00
-21.798  0.279E+00
-21.797  0.286E+00
-21.796  0.293E+00
-21.795  0.300E+00
-21.794  0.308E+00
-21.793  0.315E+00
-21.792  0.322E+00
-21.791  0.330E+00
-21.790  0.337E+00
-21.789  0.345E+00
-21.788  0.352E+00
-21.787  0.360E+00
-21.786  0.367E+00
-21.785  0.375E+00
-21.784  0.382E+00
-21.783  0.390E+00
-21.782  0.397E+00
-21.781  0.405E+00
-21.780  0.412E+00
-21.779  0.419E+00
-21.778  0.427E+00
-21.777  0.434E+00
-21.776  0.441E+00
-21.775  0.448E+00
-21.774  0.455E+00
-21.773  0.462E+00
-21.772  0.469E+00
-21.771  0.475E+00
-21.770  0.482E+00
-21.769  0.489E+00
-21.768  0.495E+00
-21.767  0.501E+00
-21.766  0.507E+00
-21.765  0.513E+00
-21.764  0.519E+00
-21.763  0.524E+00
-21.762  0.530E+00
-21.761  0.535E+00
-21.760  0.540E+00
-21.759  0.545E+00
-21.758  0.550E+00
-21.757  0.554E+00
-21.756  0.558E+00
-21.755  0.562E+00
-21.754  0.566E+00
-21.753  0.570E+00
-21.752  0.573E+00
-21.751  0.576E+00
-21.750  0.579E+00
-21.749  0.582E+00
-21.748  0.585E+00
-21.747  0.587E+00
-21.746  0.589E+00
-21.745  0.591E+00
-21.744  0.592E+00
-21.743  0.593E+00
-21.742  0.594E+00
-21.741  0.595E+00
-21.740  0.595E+00
-21.739  0.596E+00
-21.738  0.596E+00
-21.737  0.595E+00
-21.736  0.595E+00
-21.735  0.594E+00
-21.734  0.593E+00
-21.733  0.591E+00
-21.732  0.590E+00
-21.731  0.588E+00
-21.730  0.586E+00
-21.729  0.584E+00
-21.728  0.581E+00
-21.727  0.578E+00
-21.726  0.575E+00
-21.725  0.572E+00
-21.724  0.568E+00
-21.723  0.565E+00
-21.722  0.561E+00
-21.721  0.557E+00
-21.720  0.552E+00
-21.719  0.548E+00
-21.718  0.543E+00
-21.717  0.538E+00
-21.716  0.533E+00
-21.715  0.527E+00
-21.714  0.522E+00
-21.713  0.516E+00
-21.712  0.510E+00
-21.711  0.504E+00
-21.710  0.498E+00
-21.709  0.492E+00
-21.708  0.486E+00
-21.707  0.479E+00
-21.706  0.473E+00
-21.705  0.466E+00
-21.704  0.459E+00
-21.703  0.452E+00
-21.702  0.445E+00
-21.701  0.438E+00
-21.700  0.431E+00
-21.699  0.424E+00
-21.698  0.416E+00
-21.697  0.409E+00
-21.696  0.402E+00
-21.695  0.394E+00
-21.694  0.387E+00
-21.693  0.379E+00
-21.692  0.372E+00
-21.691  0.364E+00
-21.690  0.357E+00
-21.689  0.349E+00
-21.688  0.342E+00
-21.687  0.334E+00
-21.686  0.327E+00
-21.685  0.319E+00
-21.684  0.312E+00
-21.683  0.305E+00
-21.682  0.297E+00
-21.681  0.290E+00
-21.680  0.283E+00
-21.679  0.276E+00
-21.678  0.269E+00
-21.677  0.262E+00
-21.676  0.255E+00
-21.675  0.248E+00
-21.674  0.241E+00
-21.673  0.234E+00
-21.672  0.228E+00
-21.671  0.221E+00
-21.670  0.215E+00
-21.669  0.208E+00
-21.668  0.202E+00
-21.667  0.196E+00
-21.666  0.190E+00
-21.665  0.184E+00
-21.664  0.178E+00
-21.663  0.173E+00
-21.662  0.167E+00
-21.661  0.161E+00
-21.660  0.156E+00
-21.659  0.151E+00
-21.658  0.146E+00
-21.657  0.141E+00
-21.656  0.136E+00
-21.655  0.131E+00
-21.654  0.126E+00
-21.653  0.122E+00
-21.652  0.117E+00
-21.651  0.113E+00
-21.650  0.109E+00
-21.649  0.105E+00
-21.648  0.101E+00
-21.647  0.967E-01
-21.646  0.930E-01
-21.645  0.893E-01
-21.644  0.857E-01
-21.643  0.823E-01
-21.642  0.789E-01
-21.641  0.757E-01
-21.640  0.725E-01
-21.639  0.695E-01
-21.638  0.665E-01
-21.637  0.637E-01
-21.636  0.609E-01
-21.635  0.583E-01
-21.634  0.557E-01
-21.633  0.532E-01
-21.632  0.508E-01
-21.631  0.485E-01
-21.630  0.463E-01
-21.629  0.442E-01
-21.628  0.421E-01
-21.627  0.402E-01
-21.626  0.383E-01
-21.625  0.364E-01
-21.624  0.347E-01
-21.623  0.330E-01
-21.622  0.314E-01
-21.621  0.298E-01
-21.620  0.283E-01
-21.619  0.269E-01
-21.618  0.256E-01
-21.617  0.243E-01
-21.616  0.230E-01
-21.615  0.218E-01
-21.614  0.207E-01
-21.613  0.196E-01
-21.612  0.185E-01
-21.611  0.175E-01
-21.610  0.166E-01
-21.609  0.157E-01
-21.608  0.148E-01
-21.607  0.140E-01
-21.606  0.132E-01
-21.605  0.125E-01
-21.604  0.118E-01
-21.603  0.111E-01
-21.602  0.105E-01
-21.601  0.989E-02
-21.600  0.932E-02
-21.599  0.877E-02
-21.598  0.826E-02
-21.597  0.777E-02
-21.596  0.730E-02
-21.595  0.687E-02
-21.594  0.645E-02
-21.593  0.606E-02
-21.592  0.569E-02
-21.591  0.534E-02
-21.590  0.501E-02
-21.589  0.469E-02
-21.588  0.440E-02
-21.587  0.412E-02
-21.586  0.386E-02
-21.585  0.361E-02
-21.584  0.338E-02
-21.583  0.316E-02
-21.582  0.295E-02
-21.581  0.276E-02
-21.580  0.258E-02
-21.579  0.241E-02
-21.578  0.224E-02
-21.577  0.209E-02
-21.576  0.195E-02
-21.575  0.182E-02
-21.574  0.169E-02
-21.573  0.158E-02
-21.572  0.147E-02
-21.571  0.137E-02
-21.570  0.127E-02
-21.569  0.118E-02
-21.568  0.110E-02
-21.567  0.102E-02
-21.566  0.945E-03
-21.565  0.877E-03
-21.564  0.814E-03
-21.563  0.754E-03
-21.562  0.699E-03
-21.561  0.647E-03
-21.560  0.599E-03
-21.559  0.555E-03
-21.558  0.513E-03
-21.557  0.474E-03
-21.556  0.439E-03
-21.555  0.405E-03
-21.554  0.374E-03
-21.553  0.345E-03
-21.552  0.319E-03
-21.551  0.294E-03
-21.550  0.271E-03
-21.549  0.250E-03
-21.548  0.230E-03
-21.547  0.212E-03
-21.546  0.195E-03
-21.545  0.179E-03
-21.544  0.165E-03
-21.543  0.151E-03
-21.542  0.139E-03
-21.541  0.128E-03
-21.540  0.117E-03
-21.539  0.108E-03
-21.538  0.987E-04
-21.537  0.905E-04
-21.536  0.829E-04
-21.535  0.759E-04
-21.534  0.695E-04
-21.533  0.636E-04
-21.532  0.582E-04
-21.531  0.532E-04
-21.530  0.486E-04
-21.529  0.444E-04
-21.528  0.406E-04
-21.527  0.370E-04
-21.526  0.338E-04
-21.525  0.308E-04
-21.524  0.281E-04
-21.523  0.256E-04
-21.522  0.233E-04
-21.521  0.212E-04
-21.520  0.193E-04
-21.519  0.176E-04
-21.518  0.160E-04
-21.517  0.145E-04
-21.516  0.132E-04
-21.515  0.120E-04
-21.514  0.109E-04
-21.513  0.986E-05
-21.512  0.894E-05
-21.511  0.811E-05
-21.510  0.735E-05
-21.509  0.665E-05
-21.508  0.603E-05
-21.507  0.545E-05
-21.506  0.493E-05
-21.505  0.446E-05
-21.504  0.403E-05
-21.503  0.364E-05
-21.502  0.329E-05
-21.501  0.297E-05
-21.500  0.268E-05
-21.499  0.242E-05
-21.498  0.218E-05
-21.497  0.197E-05
-21.496  0.178E-05
-21.495  0.160E-05
-21.494  0.144E-05
-21.493  0.130E-05
-21.492  0.117E-05
-21.491  0.106E-05
-21.490  0.954E-06
-21.489  0.861E-06
-21.488  0.777E-06
-21.487  0.703E-06
-21.486  0.636E-06
-21.485  0.577E-06
-21.484  0.525E-06
-21.483  0.478E-06
-21.482  0.437E-06
-21.481  0.401E-06
-21.480  0.370E-06
-21.479  0.343E-06
-21.478  0.321E-06
-21.477  0.302E-06
-21.476  0.286E-06
-21.475  0.274E-06
-21.474  0.265E-06
-21.473  0.259E-06
-21.472  0.256E-06
-21.471  0.256E-06
-21.470  0.259E-06
-21.469  0.264E-06
-21.468  0.272E-06
-21.467  0.283E-06
-21.466  0.297E-06
-21.465  0.314E-06
-21.464  0.333E-06
-21.463  0.356E-06
-21.462  0.382E-06
-21.461  0.412E-06
-21.460  0.445E-06
-21.459  0.482E-06
-21.458  0.523E-06
-21.457  0.569E-06
-21.456  0.619E-06
-21.455  0.675E-06
-21.454  0.736E-06
-21.453  0.803E-06
-21.452  0.876E-06
-21.451  0.956E-06
-21.450  0.104E-05
-21.449  0.114E-05
-21.448  0.124E-05
-21.447  0.136E-05
-21.446  0.148E-05
-21.445  0.161E-05
-21.444  0.176E-05
-21.443  0.192E-05
-21.442  0.209E-05
-21.441  0.227E-05
-21.440  0.248E-05
-21.439  0.269E-05
-21.438  0.293E-05
-21.437  0.319E-05
-21.436  0.346E-05
-21.435  0.376E-05
-21.434  0.409E-05
-21.433  0.444E-05
-21.432  0.481E-05
-21.431  0.522E-05
-21.430  0.566E-05
-21.429  0.614E-05
-21.428  0.665E-05
-21.427  0.720E-05
-21.426  0.779E-05
-21.425  0.843E-05
-21.424  0.912E-05
-21.423  0.985E-05
-21.422  0.106E-04
-21.421  0.115E-04
-21.420  0.124E-04
-21.419  0.134E-04
-21.418  0.145E-04
-21.417  0.156E-04
-21.416  0.168E-04
-21.415  0.181E-04
-21.414  0.195E-04
-21.413  0.210E-04
-21.412  0.226E-04
-21.411  0.243E-04
-21.410  0.261E-04
-21.409  0.280E-04
-21.408  0.301E-04
-21.407  0.323E-04
-21.406  0.347E-04
-21.405  0.372E-04
-21.404  0.399E-04
-21.403  0.427E-04
-21.402  0.458E-04
-21.401  0.490E-04
-21.400  0.525E-04
-21.399  0.561E-04
-21.398  0.600E-04
-21.397  0.642E-04
-21.396  0.686E-04
-21.395  0.733E-04
-21.394  0.782E-04
-21.393  0.835E-04
-21.392  0.890E-04
-21.391  0.949E-04
-21.390  0.101E-03
-21.389  0.108E-03
-21.388  0.115E-03
-21.387  0.122E-03
-21.386  0.130E-03
-21.385  0.138E-03
-21.384  0.147E-03
-21.383  0.156E-03
-21.382  0.166E-03
-21.381  0.176E-03
-21.380  0.187E-03
-21.379  0.198E-03
-21.378  0.210E-03
-21.377  0.223E-03
-21.376  0.236E-03
-21.375  0.250E-03
-21.374  0.264E-03
-21.373  0.280E-03
-21.372  0.296E-03
-21.371  0.313E-03
-21.370  0.331E-03
-21.369  0.349E-03
-21.368  0.369E-03
-21.367  0.389E-03
-21.366  0.410E-03
-21.365  0.433E-03
-21.364  0.456E-03
-21.363  0.481E-03
-21.362  0.506E-03
-21.361  0.533E-03
-21.360  0.560E-03
-21.359  0.589E-03
-21.358  0.620E-03
-21.357  0.651E-03
-21.356  0.684E-03
-21.355  0.718E-03
-21.354  0.754E-03
-21.353  0.791E-03
-21.352  0.829E-03
-21.351  0.869E-03
-21.350  0.911E-03
-21.349  0.954E-03
-21.348  0.999E-03
-21.347  0.104E-02
-21.346  0.109E-02
-21.345  0.114E-02
-21.344  0.119E-02
-21.343  0.125E-02
-21.342  0.130E-02
-21.341  0.136E-02
-21.340  0.142E-02
-21.339  0.148E-02
-21.338  0.154E-02
-21.337  0.161E-02
-21.336  0.167E-02
-21.335  0.174E-02
-21.334  0.181E-02
-21.333  0.189E-02
-21.332  0.196E-02
-21.331  0.204E-02
-21.330  0.212E-02
-21.329  0.220E-02
-21.328  0.228E-02
-21.327  0.237E-02
-21.326  0.246E-02
-21.325  0.255E-02
-21.324  0.264E-02
-21.323  0.274E-02
-21.322  0.284E-02
-21.321  0.293E-02
-21.320  0.304E-02
-21.319  0.314E-02
-21.318  0.325E-02
-21.317  0.336E-02
-21.316  0.347E-02
-21.315  0.358E-02
-21.314  0.370E-02
-21.313  0.381E-02
-21.312  0.393E-02
-21.311  0.405E-02
-21.310  0.418E-02
-21.309  0.430E-02
-21.308  0.443E-02
-21.307  0.456E-02
-21.306  0.469E-02
-21.305  0.483E-02
-21.304  0.496E-02
-21.303  0.510E-02
-21.302  0.524E-02
-21.301  0.538E-02
-21.300  0.552E-02
-21.299  0.567E-02
-21.298  0.581E-02
-21.297  0.596E-02
-21.296  0.611E-02
-21.295  0.626E-02
-21.294  0.641E-02
-21.293  0.656E-02
-21.292  0.671E-02
-21.291  0.687E-02
-21.290  0.702E-02
-21.289  0.718E-02
-21.288  0.733E-02
-21.287  0.749E-02
-21.286  0.765E-02
-21.285  0.781E-02
-21.284  0.797E-02
-21.283  0.812E-02
-21.282  0.828E-02
-21.281  0.844E-02
-21.280  0.860E-02
-21.279  0.876E-02
-21.278  0.892E-02
-21.277  0.908E-02
-21.276  0.924E-02
-21.275  0.940E-02
-21.274  0.956E-02
-21.273  0.971E-02
-21.272  0.987E-02
-21.271  0.100E-01
-21.270  0.102E-01
-21.269  0.103E-01
-21.268  0.105E-01
-21.267  0.106E-01
-21.266  0.108E-01
-21.265  0.109E-01
-21.264  0.111E-01
-21.263  0.112E-01
-21.262  0.114E-01
-21.261  0.115E-01
-21.260  0.117E-01
-21.259  0.118E-01
-21.258  0.120E-01
-21.257  0.121E-01
-21.256  0.122E-01
-21.255  0.124E-01
-21.254  0.125E-01
-21.253  0.126E-01
-21.252  0.128E-01
-21.251  0.129E-01
-21.250  0.130E-01
-21.249  0.132E-01
-21.248  0.133E-01
-21.247  0.134E-01
-21.246  0.135E-01
-21.245  0.137E-01
-21.244  0.138E-01
-21.243  0.139E-01
-21.242  0.140E-01
-21.241  0.141E-01
-21.240  0.143E-01
-21.239  0.144E-01
-21.238  0.145E-01
-21.237  0.146E-01
-21.236  0.147E-01
-21.235  0.148E-01
-21.234  0.149E-01
-21.233  0.150E-01
-21.232  0.151E-01
-21.231  0.153E-01
-21.230  0.154E-01
-21.229  0.155E-01
-21.228  0.156E-01
-21.227  0.157E-01
-21.226  0.158E-01
-21.225  0.159E-01
-21.224  0.160E-01
-21.223  0.161E-01
-21.222  0.162E-01
-21.221  0.163E-01
-21.220  0.164E-01
-21.219  0.165E-01
-21.218  0.166E-01
-21.217  0.168E-01
-21.216  0.169E-01
-21.215  0.170E-01
-21.214  0.171E-01
-21.213  0.172E-01
-21.212  0.173E-01
-21.211  0.174E-01
-21.210  0.176E-01
-21.209  0.177E-01
-21.208  0.178E-01
-21.207  0.179E-01
-21.206  0.180E-01
-21.205  0.182E-01
-21.204  0.183E-01
-21.203  0.184E-01
-21.202  0.186E-01
-21.201  0.187E-01
-21.200  0.188E-01
-21.199  0.190E-01
-21.198  0.191E-01
-21.197  0.193E-01
-21.196  0.194E-01
-21.195  0.195E-01
-21.194  0.197E-01
-21.193  0.198E-01
-21.192  0.200E-01
-21.191  0.201E-01
-21.190  0.203E-01
-21.189  0.205E-01
-21.188  0.206E-01
-21.187  0.208E-01
-21.186  0.209E-01
-21.185  0.211E-01
-21.184  0.213E-01
-21.183  0.214E-01
-21.182  0.216E-01
-21.181  0.218E-01
-21.180  0.220E-01
-21.179  0.221E-01
-21.178  0.223E-01
-21.177  0.225E-01
-21.176  0.226E-01
-21.175  0.228E-01
-21.174  0.230E-01
-21.173  0.232E-01
-21.172  0.234E-01
-21.171  0.235E-01
-21.170  0.237E-01
-21.169  0.239E-01
-21.168  0.241E-01
-21.167  0.242E-01
-21.166  0.244E-01
-21.165  0.246E-01
-21.164  0.248E-01
-21.163  0.249E-01
-21.162  0.251E-01
-21.161  0.253E-01
-21.160  0.254E-01
-21.159  0.256E-01
-21.158  0.257E-01
-21.157  0.259E-01
-21.156  0.261E-01
-21.155  0.262E-01
-21.154  0.264E-01
-21.153  0.265E-01
-21.152  0.267E-01
-21.151  0.268E-01
-21.150  0.269E-01
-21.149  0.271E-01
-21.148  0.272E-01
-21.147  0.273E-01
-21.146  0.275E-01
-21.145  0.276E-01
-21.144  0.277E-01
-21.143  0.278E-01
-21.142  0.279E-01
-21.141  0.280E-01
-21.140  0.281E-01
-21.139  0.282E-01
-21.138  0.283E-01
-21.137  0.284E-01
-21.136  0.284E-01
-21.135  0.285E-01
-21.134  0.286E-01
-21.133  0.286E-01
-21.132  0.287E-01
-21.131  0.288E-01
-21.130  0.288E-01
-21.129  0.288E-01
-21.128  0.289E-01
-21.127  0.289E-01
-21.126  0.289E-01
-21.125  0.290E-01
-21.124  0.290E-01
-21.123  0.290E-01
-21.122  0.290E-01
-21.121  0.290E-01
-21.120  0.290E-01
-21.119  0.290E-01
-21.118  0.290E-01
-21.117  0.289E-01
-21.116  0.289E-01
-21.115  0.289E-01
-21.114  0.289E-01
-21.113  0.288E-01
-21.112  0.288E-01
-21.111  0.287E-01
-21.110  0.287E-01
-21.109  0.286E-01
-21.108  0.286E-01
-21.107  0.285E-01
-21.106  0.284E-01
-21.105  0.284E-01
-21.104  0.283E-01
-21.103  0.282E-01
-21.102  0.282E-01
-21.101  0.281E-01
-21.100  0.280E-01
-21.099  0.279E-01
-21.098  0.278E-01
-21.097  0.277E-01
-21.096  0.276E-01
-21.095  0.275E-01
-21.094  0.274E-01
-21.093  0.273E-01
-21.092  0.272E-01
-21.091  0.271E-01
-21.090  0.270E-01
-21.089  0.269E-01
-21.088  0.268E-01
-21.087  0.267E-01
-21.086  0.266E-01
-21.085  0.265E-01
-21.084  0.264E-01
-21.083  0.263E-01
-21.082  0.262E-01
-21.081  0.261E-01
-21.080  0.260E-01
-21.079  0.258E-01
-21.078  0.257E-01
-21.077  0.256E-01
-21.076  0.255E-01
-21.075  0.254E-01
-21.074  0.253E-01
-21.073  0.252E-01
-21.072  0.250E-01
-21.071  0.249E-01
-21.070  0.248E-01
-21.069  0.247E-01
-21.068  0.246E-01
-21.067  0.245E-01
-21.066  0.244E-01
-21.065  0.243E-01
-21.064  0.242E-01
-21.063  0.240E-01
-21.062  0.239E-01
-21.061  0.238E-01
-21.060  0.237E-01
-21.059  0.236E-01
-21.058  0.235E-01
-21.057  0.234E-01
-21.056  0.233E-01
-21.055  0.232E-01
-21.054  0.231E-01
-21.053  0.230E-01
-21.052  0.228E-01
-21.051  0.227E-01
-21.050  0.226E-01
-21.049  0.225E-01
-21.048  0.224E-01
-21.047  0.223E-01
-21.046  0.222E-01
-21.045  0.221E-01
-21.044  0.220E-01
-21.043  0.219E-01
-21.042  0.218E-01
-21.041  0.217E-01
-21.040  0.216E-01
-21.039  0.215E-01
-21.038  0.214E-01
-21.037  0.213E-01
-21.036  0.212E-01
-21.035  0.211E-01
-21.034  0.210E-01
-21.033  0.209E-01
-21.032  0.208E-01
-21.031  0.207E-01
-21.030  0.206E-01
-21.029  0.205E-01
-21.028  0.204E-01
-21.027  0.203E-01
-21.026  0.202E-01
-21.025  0.201E-01
-21.024  0.200E-01
-21.023  0.199E-01
-21.022  0.198E-01
-21.021  0.197E-01
-21.020  0.196E-01
-21.019  0.195E-01
-21.018  0.194E-01
-21.017  0.193E-01
-21.016  0.192E-01
-21.015  0.191E-01
-21.014  0.190E-01
-21.013  0.189E-01
-21.012  0.188E-01
-21.011  0.188E-01
-21.010  0.187E-01
-21.009  0.186E-01
-21.008  0.185E-01
-21.007  0.184E-01
-21.006  0.183E-01
-21.005  0.182E-01
-21.004  0.182E-01
-21.003  0.181E-01
-21.002  0.180E-01
-21.001  0.179E-01
-21.000  0.179E-01
-20.999  0.178E-01
-20.998  0.177E-01
-20.997  0.177E-01
-20.996  0.176E-01
-20.995  0.175E-01
-20.994  0.175E-01
-20.993  0.174E-01
-20.992  0.174E-01
-20.991  0.173E-01
-20.990  0.173E-01
-20.989  0.172E-01
-20.988  0.172E-01
-20.987  0.172E-01
-20.986  0.171E-01
-20.985  0.171E-01
-20.984  0.171E-01
-20.983  0.170E-01
-20.982  0.170E-01
-20.981  0.170E-01
-20.980  0.170E-01
-20.979  0.169E-01
-20.978  0.169E-01
-20.977  0.169E-01
-20.976  0.169E-01
-20.975  0.169E-01
-20.974  0.169E-01
-20.973  0.169E-01
-20.972  0.169E-01
-20.971  0.169E-01
-20.970  0.170E-01
-20.969  0.170E-01
-20.968  0.170E-01
-20.967  0.170E-01
-20.966  0.171E-01
-20.965  0.171E-01
-20.964  0.171E-01
-20.963  0.172E-01
-20.962  0.172E-01
-20.961  0.173E-01
-20.960  0.173E-01
-20.959  0.174E-01
-20.958  0.174E-01
-20.957  0.175E-01
-20.956  0.176E-01
-20.955  0.176E-01
-20.954  0.177E-01
-20.953  0.178E-01
-20.952  0.179E-01
-20.951  0.179E-01
-20.950  0.180E-01
-20.949  0.181E-01
-20.948  0.182E-01
-20.947  0.183E-01
-20.946  0.184E-01
-20.945  0.185E-01
-20.944  0.186E-01
-20.943  0.187E-01
-20.942  0.188E-01
-20.941  0.189E-01
-20.940  0.191E-01
-20.939  0.192E-01
-20.938  0.193E-01
-20.937  0.194E-01
-20.936  0.195E-01
-20.935  0.197E-01
-20.934  0.198E-01
-20.933  0.199E-01
-20.932  0.201E-01
-20.931  0.202E-01
-20.930  0.204E-01
-20.929  0.205E-01
-20.928  0.206E-01
-20.927  0.208E-01
-20.926  0.209E-01
-20.925  0.211E-01
-20.924  0.212E-01
-20.923  0.214E-01
-20.922  0.215E-01
-20.921  0.217E-01
-20.920  0.218E-01
-20.919  0.220E-01
-20.918  0.221E-01
-20.917  0.223E-01
-20.916  0.224E-01
-20.915  0.226E-01
-20.914  0.227E-01
-20.913  0.229E-01
-20.912  0.231E-01
-20.911  0.232E-01
-20.910  0.234E-01
-20.909  0.235E-01
-20.908  0.237E-01
-20.907  0.238E-01
-20.906  0.240E-01
-20.905  0.241E-01
-20.904  0.243E-01
-20.903  0.244E-01
-20.902  0.246E-01
-20.901  0.247E-01
-20.900  0.248E-01
-20.899  0.250E-01
-20.898  0.251E-01
-20.897  0.253E-01
-20.896  0.254E-01
-20.895  0.255E-01
-20.894  0.257E-01
-20.893  0.258E-01
-20.892  0.259E-01
-20.891  0.260E-01
-20.890  0.261E-01
-20.889  0.263E-01
-20.888  0.264E-01
-20.887  0.265E-01
-20.886  0.266E-01
-20.885  0.267E-01
-20.884  0.268E-01
-20.883  0.269E-01
-20.882  0.270E-01
-20.881  0.271E-01
-20.880  0.272E-01
-20.879  0.272E-01
-20.878  0.273E-01
-20.877  0.274E-01
-20.876  0.275E-01
-20.875  0.275E-01
-20.874  0.276E-01
-20.873  0.277E-01
-20.872  0.277E-01
-20.871  0.278E-01
-20.870  0.278E-01
-20.869  0.278E-01
-20.868  0.279E-01
-20.867  0.279E-01
-20.866  0.279E-01
-20.865  0.280E-01
-20.864  0.280E-01
-20.863  0.280E-01
-20.862  0.280E-01
-20.861  0.280E-01
-20.860  0.280E-01
-20.859  0.280E-01
-20.858  0.280E-01
-20.857  0.280E-01
-20.856  0.279E-01
-20.855  0.279E-01
-20.854  0.279E-01
-20.853  0.278E-01
-20.852  0.278E-01
-20.851  0.278E-01
-20.850  0.277E-01
-20.849  0.277E-01
-20.848  0.276E-01
-20.847  0.276E-01
-20.846  0.275E-01
-20.845  0.274E-01
-20.844  0.273E-01
-20.843  0.273E-01
-20.842  0.272E-01
-20.841  0.271E-01
-20.840  0.270E-01
-20.839  0.269E-01
-20.838  0.268E-01
-20.837  0.267E-01
-20.836  0.266E-01
-20.835  0.265E-01
-20.834  0.264E-01
-20.833  0.263E-01
-20.832  0.262E-01
-20.831  0.261E-01
-20.830  0.259E-01
-20.829  0.258E-01
-20.828  0.257E-01
-20.827  0.256E-01
-20.826  0.254E-01
-20.825  0.253E-01
-20.824  0.251E-01
-20.823  0.250E-01
-20.822  0.249E-01
-20.821  0.247E-01
-20.820  0.246E-01
-20.819  0.244E-01
-20.818  0.243E-01
-20.817  0.241E-01
-20.816  0.240E-01
-20.815  0.238E-01
-20.814  0.237E-01
-20.813  0.235E-01
-20.812  0.234E-01
-20.811  0.232E-01
-20.810  0.231E-01
-20.809  0.229E-01
-20.808  0.228E-01
-20.807  0.226E-01
-20.806  0.225E-01
-20.805  0.223E-01
-20.804  0.222E-01
-20.803  0.220E-01
-20.802  0.219E-01
-20.801  0.217E-01
-20.800  0.216E-01
-20.799  0.215E-01
-20.798  0.213E-01
-20.797  0.212E-01
-20.796  0.210E-01
-20.795  0.209E-01
-20.794  0.208E-01
-20.793  0.206E-01
-20.792  0.205E-01
-20.791  0.204E-01
-20.790  0.202E-01
-20.789  0.201E-01
-20.788  0.200E-01
-20.787  0.199E-01
-20.786  0.198E-01
-20.785  0.197E-01
-20.784  0.195E-01
-20.783  0.194E-01
-20.782  0.193E-01
-20.781  0.192E-01
-20.780  0.191E-01
-20.779  0.190E-01
-20.778  0.190E-01
-20.777  0.189E-01
-20.776  0.188E-01
-20.775  0.187E-01
-20.774  0.186E-01
-20.773  0.185E-01
-20.772  0.185E-01
-20.771  0.184E-01
-20.770  0.183E-01
-20.769  0.183E-01
-20.768  0.182E-01
-20.767  0.182E-01
-20.766  0.181E-01
-20.765  0.181E-01
-20.764  0.180E-01
-20.763  0.180E-01
-20.762  0.180E-01
-20.761  0.179E-01
-20.760  0.179E-01
-20.759  0.179E-01
-20.758  0.179E-01
-20.757  0.178E-01
-20.756  0.178E-01
-20.755  0.178E-01
-20.754  0.178E-01
-20.753  0.178E-01
-20.752  0.178E-01
-20.751  0.178E-01
-20.750  0.178E-01
-20.749  0.178E-01
-20.748  0.178E-01
-20.747  0.178E-01
-20.746  0.178E-01
-20.745  0.179E-01
-20.744  0.179E-01
-20.743  0.179E-01
-20.742  0.179E-01
-20.741  0.180E-01
-20.740  0.180E-01
-20.739  0.180E-01
-20.738  0.180E-01
-20.737  0.181E-01
-20.736  0.181E-01
-20.735  0.181E-01
-20.734  0.182E-01
-20.733  0.182E-01
-20.732  0.182E-01
-20.731  0.183E-01
-20.730  0.183E-01
-20.729  0.184E-01
-20.728  0.184E-01
-20.727  0.184E-01
-20.726  0.185E-01
-20.725  0.185E-01
-20.724  0.186E-01
-20.723  0.186E-01
-20.722  0.186E-01
-20.721  0.187E-01
-20.720  0.187E-01
-20.719  0.188E-01
-20.718  0.188E-01
-20.717  0.188E-01
-20.716  0.189E-01
-20.715  0.189E-01
-20.714  0.190E-01
-20.713  0.190E-01
-20.712  0.190E-01
-20.711  0.191E-01
-20.710  0.191E-01
-20.709  0.191E-01
-20.708  0.191E-01
-20.707  0.192E-01
-20.706  0.192E-01
-20.705  0.192E-01
-20.704  0.192E-01
-20.703  0.193E-01
-20.702  0.193E-01
-20.701  0.193E-01
-20.700  0.193E-01
-20.699  0.193E-01
-20.698  0.193E-01
-20.697  0.193E-01
-20.696  0.193E-01
-20.695  0.193E-01
-20.694  0.193E-01
-20.693  0.193E-01
-20.692  0.193E-01
-20.691  0.193E-01
-20.690  0.193E-01
-20.689  0.193E-01
-20.688  0.193E-01
-20.687  0.193E-01
-20.686  0.193E-01
-20.685  0.193E-01
-20.684  0.193E-01
-20.683  0.192E-01
-20.682  0.192E-01
-20.681  0.192E-01
-20.680  0.192E-01
-20.679  0.191E-01
-20.678  0.191E-01
-20.677  0.191E-01
-20.676  0.190E-01
-20.675  0.190E-01
-20.674  0.190E-01
-20.673  0.189E-01
-20.672  0.189E-01
-20.671  0.188E-01
-20.670  0.188E-01
-20.669  0.188E-01
-20.668  0.187E-01
-20.667  0.187E-01
-20.666  0.186E-01
-20.665  0.186E-01
-20.664  0.185E-01
-20.663  0.185E-01
-20.662  0.184E-01
-20.661  0.184E-01
-20.660  0.183E-01
-20.659  0.183E-01
-20.658  0.182E-01
-20.657  0.182E-01
-20.656  0.181E-01
-20.655  0.181E-01
-20.654  0.180E-01
-20.653  0.180E-01
-20.652  0.179E-01
-20.651  0.179E-01
-20.650  0.178E-01
-20.649  0.178E-01
-20.648  0.177E-01
-20.647  0.177E-01
-20.646  0.176E-01
-20.645  0.176E-01
-20.644  0.176E-01
-20.643  0.175E-01
-20.642  0.175E-01
-20.641  0.174E-01
-20.640  0.174E-01
-20.639  0.174E-01
-20.638  0.173E-01
-20.637  0.173E-01
-20.636  0.173E-01
-20.635  0.172E-01
-20.634  0.172E-01
-20.633  0.172E-01
-20.632  0.172E-01
-20.631  0.171E-01
-20.630  0.171E-01
-20.629  0.171E-01
-20.628  0.171E-01
-20.627  0.171E-01
-20.626  0.171E-01
-20.625  0.171E-01
-20.624  0.171E-01
-20.623  0.170E-01
-20.622  0.170E-01
-20.621  0.170E-01
-20.620  0.171E-01
-20.619  0.171E-01
-20.618  0.171E-01
-20.617  0.171E-01
-20.616  0.171E-01
-20.615  0.171E-01
-20.614  0.171E-01
-20.613  0.171E-01
-20.612  0.172E-01
-20.611  0.172E-01
-20.610  0.172E-01
-20.609  0.173E-01
-20.608  0.173E-01
-20.607  0.173E-01
-20.606  0.174E-01
-20.605  0.174E-01
-20.604  0.174E-01
-20.603  0.175E-01
-20.602  0.175E-01
-20.601  0.176E-01
-20.600  0.176E-01
-20.599  0.177E-01
-20.598  0.178E-01
-20.597  0.178E-01
-20.596  0.179E-01
-20.595  0.179E-01
-20.594  0.180E-01
-20.593  0.181E-01
-20.592  0.181E-01
-20.591  0.182E-01
-20.590  0.183E-01
-20.589  0.184E-01
-20.588  0.184E-01
-20.587  0.185E-01
-20.586  0.186E-01
-20.585  0.187E-01
-20.584  0.188E-01
-20.583  0.188E-01
-20.582  0.189E-01
-20.581  0.190E-01
-20.580  0.191E-01
-20.579  0.192E-01
-20.578  0.193E-01
-20.577  0.194E-01
-20.576  0.195E-01
-20.575  0.196E-01
-20.574  0.197E-01
-20.573  0.197E-01
-20.572  0.198E-01
-20.571  0.199E-01
-20.570  0.200E-01
-20.569  0.201E-01
-20.568  0.202E-01
-20.567  0.203E-01
-20.566  0.204E-01
-20.565  0.205E-01
-20.564  0.206E-01
-20.563  0.207E-01
-20.562  0.208E-01
-20.561  0.209E-01
-20.560  0.210E-01
-20.559  0.211E-01
-20.558  0.212E-01
-20.557  0.213E-01
-20.556  0.214E-01
-20.555  0.215E-01
-20.554  0.216E-01
-20.553  0.216E-01
-20.552  0.217E-01
-20.551  0.218E-01
-20.550  0.219E-01
-20.549  0.220E-01
-20.548  0.221E-01
-20.547  0.222E-01
-20.546  0.222E-01
-20.545  0.223E-01
-20.544  0.224E-01
-20.543  0.225E-01
-20.542  0.225E-01
-20.541  0.226E-01
-20.540  0.227E-01
-20.539  0.228E-01
-20.538  0.228E-01
-20.537  0.229E-01
-20.536  0.229E-01
-20.535  0.230E-01
-20.534  0.231E-01
-20.533  0.231E-01
-20.532  0.232E-01
-20.531  0.232E-01
-20.530  0.233E-01
-20.529  0.233E-01
-20.528  0.233E-01
-20.527  0.234E-01
-20.526  0.234E-01
-20.525  0.235E-01
-20.524  0.235E-01
-20.523  0.235E-01
-20.522  0.235E-01
-20.521  0.235E-01
-20.520  0.236E-01
-20.519  0.236E-01
-20.518  0.236E-01
-20.517  0.236E-01
-20.516  0.236E-01
-20.515  0.236E-01
-20.514  0.236E-01
-20.513  0.236E-01
-20.512  0.236E-01
-20.511  0.236E-01
-20.510  0.236E-01
-20.509  0.236E-01
-20.508  0.235E-01
-20.507  0.235E-01
-20.506  0.235E-01
-20.505  0.235E-01
-20.504  0.234E-01
-20.503  0.234E-01
-20.502  0.234E-01
-20.501  0.233E-01
-20.500  0.233E-01
-20.499  0.232E-01
-20.498  0.232E-01
-20.497  0.231E-01
-20.496  0.231E-01
-20.495  0.230E-01
-20.494  0.230E-01
-20.493  0.229E-01
-20.492  0.229E-01
-20.491  0.228E-01
-20.490  0.227E-01
-20.489  0.227E-01
-20.488  0.226E-01
-20.487  0.225E-01
-20.486  0.225E-01
-20.485  0.224E-01
-20.484  0.223E-01
-20.483  0.222E-01
-20.482  0.222E-01
-20.481  0.221E-01
-20.480  0.220E-01
-20.479  0.219E-01
-20.478  0.218E-01
-20.477  0.218E-01
-20.476  0.217E-01
-20.475  0.216E-01
-20.474  0.215E-01
-20.473  0.214E-01
-20.472  0.213E-01
-20.471  0.213E-01
-20.470  0.212E-01
-20.469  0.211E-01
-20.468  0.210E-01
-20.467  0.209E-01
-20.466  0.208E-01
-20.465  0.208E-01
-20.464  0.207E-01
-20.463  0.206E-01
-20.462  0.205E-01
-20.461  0.204E-01
-20.460  0.204E-01
-20.459  0.203E-01
-20.458  0.202E-01
-20.457  0.201E-01
-20.456  0.201E-01
-20.455  0.200E-01
-20.454  0.199E-01
-20.453  0.199E-01
-20.452  0.198E-01
-20.451  0.197E-01
-20.450  0.197E-01
-20.449  0.196E-01
-20.448  0.196E-01
-20.447  0.195E-01
-20.446  0.195E-01
-20.445  0.194E-01
-20.444  0.194E-01
-20.443  0.193E-01
-20.442  0.193E-01
-20.441  0.192E-01
-20.440  0.192E-01
-20.439  0.191E-01
-20.438  0.191E-01
-20.437  0.191E-01
-20.436  0.190E-01
-20.435  0.190E-01
-20.434  0.190E-01
-20.433  0.190E-01
-20.432  0.189E-01
-20.431  0.189E-01
-20.430  0.189E-01
-20.429  0.189E-01
-20.428  0.189E-01
-20.427  0.189E-01
-20.426  0.189E-01
-20.425  0.189E-01
-20.424  0.189E-01
-20.423  0.189E-01
-20.422  0.189E-01
-20.421  0.189E-01
-20.420  0.189E-01
-20.419  0.189E-01
-20.418  0.189E-01
-20.417  0.189E-01
-20.416  0.189E-01
-20.415  0.189E-01
-20.414  0.189E-01
-20.413  0.190E-01
-20.412  0.190E-01
-20.411  0.190E-01
-20.410  0.190E-01
-20.409  0.190E-01
-20.408  0.191E-01
-20.407  0.191E-01
-20.406  0.191E-01
-20.405  0.191E-01
-20.404  0.192E-01
-20.403  0.192E-01
-20.402  0.192E-01
-20.401  0.192E-01
-20.400  0.193E-01
-20.399  0.193E-01
-20.398  0.193E-01
-20.397  0.193E-01
-20.396  0.194E-01
-20.395  0.194E-01
-20.394  0.194E-01
-20.393  0.194E-01
-20.392  0.195E-01
-20.391  0.195E-01
-20.390  0.195E-01
-20.389  0.195E-01
-20.388  0.195E-01
-20.387  0.196E-01
-20.386  0.196E-01
-20.385  0.196E-01
-20.384  0.196E-01
-20.383  0.196E-01
-20.382  0.196E-01
-20.381  0.196E-01
-20.380  0.196E-01
-20.379  0.197E-01
-20.378  0.197E-01
-20.377  0.197E-01
-20.376  0.197E-01
-20.375  0.197E-01
-20.374  0.197E-01
-20.373  0.197E-01
-20.372  0.196E-01
-20.371  0.196E-01
-20.370  0.196E-01
-20.369  0.196E-01
-20.368  0.196E-01
-20.367  0.196E-01
-20.366  0.196E-01