-21.739 0.0 0.0 0.0 0.0
-21.738 0.0 0.0 0.0 0.0
-21.737 0.0 0.0 0.0 0.0
-21.736 0.0 0.0 0.0 0.0
-21.735 0.0 0.0 0.0 0.0
-21.734 0.0 0.0 0.0 0.0
-21.733 0.0 0.0 0.0 0.0
-21.732 0.0 0.0 0.0 0.0
-21.731 0.0 0.0 0.0 0.0
-21.73 0.0 0.0 0.0 0.0
-21.729 0.0 0.0 0.0 0.0
-21.728 0.0 0.0 0.0 0.0
-21.727 0.0 0.0 0.0 0.0
-21.726 0.0 0.0 0.0 0.0
-21.725 0.0 0.0 0.0 0.0
-21.724 0.0 0.0 0.0 0.0
-21.723 0.0 0.0 0.0 0.0
-21.722 0.0 0.0 0.0 0.0
-21.721 0.0 0.0 0.0 0.0
-21.72 0.0 0.0 0.0 0.0
-21.719 0.0 0.0 0.0 0.0
-21.718 0.0 0.0 0.0 0.0
-21.717 0.0 0.0 0.0 0.0
-21.716 0.0 0.0 0.0 0.0
-21.715 0.0 0.0 0.0 0.0
-21.714 0.0 0.0 0.0 0.0
-21.713 0.0 0.0 0.0 0.0
-21.712 0.0 0.0 0.0 0.0
-21.711 0.0 0.0 0.0 0.0
-21.71 0.0 0.0 0.0 0.0
-21.709 0.0 0.0 0.0 0.0
-21.708 0.0 0.0 0.0 0.0
-21.707 0.0 0.0 0.0 0.0
-21.706 0.0 0.0 0.0 0.0
-21.705 0.0 0.0 0.0 0.0
-21.704 0.0 0.0 0.0 0.0
-21.703 0.0 0.0 0.0 0.0
-21.702 0.0 0.0 0.0 0.0
-21.701 0.0 0.0 0.0 0.0
-21.7 0.0 0.0 0.0 0.0
-21.699 0.0 0.0 0.0 0.0
-21.698 0.0 0.0 0.0 0.0
-21.697 0.0 0.0 0.0 0.0
-21.696 0.0 0.0 0.0 0.0
-21.695 0.0 0.0 0.0 0.0
-21.694 0.0 0.0 0.0 0.0
-21.693 0.0 0.0 0.0 0.0
-21.692 0.0 0.0 0.0 0.0
-21.691 0.0 0.0 0.0 0.0
-21.69 0.0 0.0 0.0 0.0
-21.689 0.0 0.0 0.0 0.0
-21.688 0.0 0.0 0.0 0.0
-21.687 0.0 0.0 0.0 0.0
-21.686 0.0 0.0 0.0 0.0
-21.685 0.0 0.0 0.0 0.0
-21.684 0.0 0.0 0.0 0.0
-21.683 0.0 0.0 0.0 0.0
-21.682 0.0 0.0 0.0 0.0
-21.681 0.0 0.0 0.0 0.0
-21.68 0.0 0.0 0.0 0.0
-21.679 0.0 0.0 0.0 0.0
-21.678 0.0 0.0 0.0 0.0
-21.677 0.0 0.0 0.0 0.0
-21.676 0.0 0.0 0.0 0.0
-21.675 0.0 0.0 0.0 0.0
-21.674 0.0 0.0 0.0 0.0
-21.673 0.0 0.0 0.0 0.0
-21.672 0.0 0.0 0.0 0.0
-21.671 0.0 0.0 0.0 0.0
-21.67 0.0 0.0 0.0 0.0
-21.669 0.0 0.0 0.0 0.0
-21.668 0.0 0.0 0.0 0.0
-21.667 0.0 0.0 0.0 0.0
-21.666 0.0 0.0 0.0 0.0
-21.665 0.0 0.0 0.0 0.0
-21.664 0.0 0.0 0.0 0.0
-21.663 0.0 0.0 0.0 0.0
-21.662 0.0 0.0 0.0 0.0
-21.661 0.0 0.0 0.0 0.0
-21.66 0.0 0.0 0.0 0.0
-21.659 0.0 0.0 0.0 0.0
-21.658 0.0 0.0 0.0 0.0
-21.657 0.0 0.0 0.0 0.0
-21.656 0.0 0.0 0.0 0.0
-21.655 0.0 0.0 0.0 0.0
-21.654 0.0 0.0 0.0 0.0
-21.653 0.0 0.0 0.0 0.0
-21.652 0.0 0.0 0.0 0.0
-21.651 0.0 0.0 0.0 0.0
-21.65 0.0 0.0 0.0 0.0
-21.649 0.0 0.0 0.0 0.0
-21.648 0.0 0.0 0.0 0.0
-21.647 0.0 0.0 0.0 0.0
-21.646 0.0 0.0 0.0 0.0
-21.645 0.0 0.0 0.0 0.0
-21.644 0.0 0.0 0.0 0.0
-21.643 0.0 0.0 0.0 0.0
-21.642 0.0 0.0 0.0 0.0
-21.641 0.0 0.0 0.0 0.0
-21.64 0.0 0.0 0.0 0.0
-21.639 0.0 0.0 0.0 0.0
-21.638 0.0 0.0 0.0 0.0
-21.637 0.0 0.0 0.0 0.0
-21.636 0.0 0.0 0.0 0.0
-21.635 0.0 0.0 0.0 0.0
-21.634 0.0 0.0 0.0 0.0
-21.633 0.0 0.0 0.0 0.0
-21.632 0.0 0.0 0.0 0.0
-21.631 0.0 0.0 0.0 0.0
-21.63 0.0 0.0 0.0 0.0
-21.629 0.0 0.0 0.0 0.0
-21.628 0.0 0.0 0.0 0.0
-21.627 0.0 0.0 0.0 0.0
-21.626 0.0 0.0 0.0 0.0
-21.625 0.0 0.0 0.0 0.0
-21.624 0.0 0.0 0.0 0.0
-21.623 0.0 0.0 0.0 0.0
-21.622 0.0 0.0 0.0 0.0
-21.621 0.0 0.0 0.0 0.0
-21.62 0.0 0.0 0.0 0.0
-21.619 0.0 0.0 0.0 0.0
-21.618 0.0 0.0 0.0 0.0
-21.617 0.0 0.0 0.0 0.0
-21.616 0.0 0.0 0.0 0.0
-21.615 0.0 0.0 0.0 0.0
-21.614 0.0 0.0 0.0 0.0
-21.613 0.0 0.0 0.0 0.0
-21.612 0.0 0.0 0.0 0.0
-21.611 0.0 0.0 0.0 0.0
-21.61 0.0 0.0 0.0 0.0
-21.609 0.0 0.0 0.0 0.0
-21.608 0.0 0.0 0.0 0.0
-21.607 0.0 0.0 0.0 0.0
-21.606 0.0 0.0 0.0 0.0
-21.605 0.0 0.0 0.0 0.0
-21.604 0.0 0.0 0.0 0.0
-21.603 0.0 0.0 0.0 0.0
-21.602 0.0 0.0 0.0 0.0
-21.601 0.0 0.0 0.0 0.0
-21.6 0.0 0.0 0.0 0.0
-21.599 0.0 0.0 0.0 0.0
-21.598 0.0 0.0 0.0 0.0
-21.597 0.0 0.0 0.0 0.0
-21.596 0.0 0.0 0.0 0.0
-21.595 0.0 0.0 0.0 0.0
-21.594 0.0 0.0 0.0 0.0
-21.593 0.0 0.0 0.0 0.0
-21.592 0.0 0.0 0.0 0.0
-21.591 0.0 0.0 0.0 0.0
-21.59 0.0 0.0 0.0 0.0
-21.589 0.0 0.0 0.0 0.0
-21.588 0.0 0.0 0.0 0.0
-21.587 0.0 0.0 0.0 0.0
-21.586 0.0 0.0 0.0 0.0
-21.585 0.0 0.0 0.0 0.0
-21.584 0.0 0.0 0.0 0.0
-21.583 0.0 0.0 0.0 0.0
-21.582 0.0 0.0 0.0 0.0
-21.581 0.0 0.0 0.0 0.0
-21.58 0.0 0.0 0.0 0.0
-21.579 0.0 0.0 0.0 0.0
-21.578 0.0 0.0 0.0 0.0
-21.577 0.0 0.0 0.0 0.0
-21.576 0.0 0.0 0.0 0.0
-21.575 0.0 0.0 0.0 0.0
-21.574 0.0 0.0 0.0 0.0
-21.573 0.0 0.0 0.0 0.0
-21.572 0.0 0.0 0.0 0.0
-21.571 0.0 0.0 0.0 0.0
-21.57 0.0 0.0 0.0 0.0
-21.569 0.0 0.0 0.0 0.0
-21.568 0.0 0.0 0.0 0.0
-21.567 0.0 0.0 0.0 0.0
-21.566 0.0 0.0 0.0 0.0
-21.565 0.0 0.0 0.0 0.0
-21.564 0.0 0.0 0.0 0.0
-21.563 0.0 0.0 0.0 0.0
-21.562 0.0 0.0 0.0 0.0
-21.561 0.0 0.0 0.0 0.0
-21.56 0.0 0.0 0.0 0.0
-21.559 0.0 0.0 0.0 0.0
-21.558 0.0 0.0 0.0 0.0
-21.557 0.0 0.0 0.0 0.0
-21.556 0.0 0.0 0.0 0.0
-21.555 0.0 0.0 0.0 0.0
-21.554 0.0 0.0 0.0 0.0
-21.553 0.0 0.0 0.0 0.0
-21.552 0.0 0.0 0.0 0.0
-21.551 0.0 0.0 0.0 0.0
-21.55 0.0 0.0 0.0 0.0
-21.549 0.0 0.0 0.0 0.0
-21.548 0.0 0.0 0.0 0.0
-21.547 0.0 0.0 0.0 0.0
-21.546 0.0 0.0 0.0 0.0
-21.545 0.0 0.0 0.0 0.0
-21.544 0.0 0.0 0.0 0.0
-21.543 0.0 0.0 0.0 0.0
-21.542 0.0 0.0 0.0 0.0
-21.541 0.0 0.0 0.0 0.0
-21.54 0.0 0.0 0.0 0.0
-21.539 0.0 0.0 0.0 0.0
-21.538 0.0 0.0 0.0 0.0
-21.537 0.0 0.0 0.0 0.0
-21.536 0.0 0.0 0.0 0.0
-21.535 0.0 0.0 0.0 0.0
-21.534 0.0 0.0 0.0 0.0
-21.533 0.0 0.0 0.0 0.0
-21.532 0.0 0.0 0.0 0.0
-21.531 0.0 0.0 0.0 0.0
-21.53 0.0 0.0 0.0 0.0
-21.529 0.0 0.0 0.0 0.0
-21.528 0.0 0.0 0.0 0.0
-21.527 0.0 0.0 0.0 0.0
-21.526 0.0 0.0 0.0 0.0
-21.525 0.0 0.0 0.0 0.0
-21.524 0.0 0.0 0.0 0.0
-21.523 0.0 0.0 0.0 0.0
-21.522 0.0 0.0 0.0 0.0
-21.521 0.0 0.0 0.0 0.0
-21.52 0.0 0.0 0.0 0.0
-21.519 0.0 0.0 0.0 0.0
-21.518 0.0 0.0 0.0 0.0
-21.517 0.0 0.0 0.0 0.0
-21.516 0.0 0.0 0.0 0.0
-21.515 0.0 0.0 0.0 0.0
-21.514 0.0 0.0 0.0 0.0
-21.513 0.0 0.0 0.0 0.0
-21.512 0.0 0.0 0.0 0.0
-21.511 0.0 0.0 0.0 0.0
-21.51 0.0 0.0 0.0 0.0
-21.509 0.0 0.0 0.0 0.0
-21.508 0.0 0.0 0.0 0.0
-21.507 0.0 0.0 0.0 0.0
-21.506 0.0 0.0 0.0 0.0
-21.505 0.0 0.0 0.0 0.0
-21.504 0.0 0.0 0.0 0.0
-21.503 0.0 0.0 0.0 0.0
-21.502 0.0 0.0 0.0 0.0
-21.501 0.0 0.0 0.0 0.0
-21.5 0.0 0.0 0.0 0.0
-21.499 0.0 0.0 0.0 0.0
-21.498 0.0 0.0 0.0 0.0
-21.497 0.0 0.0 0.0 0.0
-21.496 0.0 0.0 0.0 0.0
-21.495 0.0 0.0 0.0 0.0
-21.494 0.0 0.0 0.0 0.0
-21.493 0.0 0.0 0.0 0.0
-21.492 0.0 0.0 0.0 0.0
-21.491 0.0 0.0 0.0 0.0
-21.49 0.0 0.0 0.0 0.0
-21.489 0.0 0.0 0.0 0.0
-21.488 0.0 0.0 0.0 0.0
-21.487 0.0 0.0 0.0 0.0
-21.486 0.0 0.0 0.0 0.0
-21.485 0.0 0.0 0.0 0.0
-21.484 0.0 0.0 0.0 0.0
-21.483 0.0 0.0 0.0 0.0
-21.482 0.0 0.0 0.0 0.0
-21.481 0.0 0.0 0.0 0.0
-21.48 0.0 0.0 0.0 0.0
-21.479 0.0 0.0 0.0 0.0
-21.478 0.0 0.0 0.0 0.0
-21.477 0.0 0.0 0.0 0.0
-21.476 0.0 0.0 0.0 0.0
-21.475 0.0 0.0 0.0 0.0
-21.474 0.0 0.0 0.0 0.0
-21.473 0.0 0.0 0.0 0.0
-21.472 0.0 0.0 0.0 0.0
-21.471 0.0 0.0 0.0 0.0
-21.47 0.0 0.0 0.0 0.0
-21.469 0.0 0.0 0.0 0.0
-21.468 0.0 0.0 0.0 0.0
-21.467 0.0 0.0 0.0 0.0
-21.466 0.0 0.0 0.0 0.0
-21.465 0.0 0.0 0.0 0.0
-21.464 0.0 0.0 0.0 0.0
-21.463 0.0 0.0 0.0 0.0
-21.462 0.0 0.0 0.0 0.0
-21.461 0.0 0.0 0.0 0.0
-21.46 0.0 0.0 0.0 0.0
-21.459 0.0 0.0 0.0 0.0
-21.458 0.0 0.0 0.0 0.0
-21.457 0.0 0.0 0.0 0.0
-21.456 0.0 0.0 0.0 0.0
-21.455 0.0 0.0 0.0 0.0
-21.454 0.0 0.0 0.0 0.0
-21.453 0.0 0.0 0.0 0.0
-21.452 0.0 0.0 0.0 0.0
-21.451 0.0 0.0 0.0 0.0
-21.45 0.0 0.0 0.0 0.0
-21.449 0.0 0.0 0.0 0.0
-21.448 0.0 0.0 0.0 0.0
-21.447 0.0 0.0 0.0 0.0
-21.446 0.0 0.0 0.0 0.0
-21.445 0.0 0.0 0.0 0.0
-21.444 0.0 0.0 0.0 0.0
-21.443 0.0 0.0 0.0 0.0
-21.442 0.0 0.0 0.0 0.0
-21.441 0.0 0.0 0.0 0.0
-21.44 0.0 0.0 0.0 0.0
-21.439 0.0 0.0 0.0 0.0
-21.438 0.0 0.0 0.0 0.0
-21.437 0.0 0.0 0.0 0.0
-21.436 0.0 0.0 0.0 0.0
-21.435 0.0 0.0 0.0 0.0
-21.434 0.0 0.0 0.0 0.0
-21.433 0.0 0.0 0.0 0.0
-21.432 0.0 0.0 0.0 0.0
-21.431 0.0 0.0 0.0 0.0
-21.43 0.0 0.0 0.0 0.0
-21.429 0.0 0.0 0.0 0.0
-21.428 0.0 0.0 0.0 0.0
-21.427 0.0 0.0 0.0 0.0
-21.426 0.0 0.0 0.0 0.0
-21.425 0.0 0.0 0.0 0.0
-21.424 0.0 0.0 0.0 0.0
-21.423 0.0 0.0 0.0 0.0
-21.422 0.0 0.0 0.0 0.0
-21.421 0.0 0.0 0.0 0.0
-21.42 0.0 0.0 0.0 0.0
-21.419 0.0 0.0 0.0 0.0
-21.418 0.0 0.0 0.0 0.0
-21.417 0.0 0.0 0.0 0.0
-21.416 0.0 0.0 0.0 0.0
-21.415 0.0 0.0 0.0 0.0
-21.414 0.0 0.0 0.0 0.0
-21.413 0.0 0.0 0.0 0.0
-21.412 0.0 0.0 0.0 0.0
-21.411 0.0 0.0 0.0 0.0
-21.41 0.0 0.0 0.0 0.0
-21.409 0.0 0.0 0.0 0.0
-21.408 0.0 0.0 0.0 0.0
-21.407 0.0 0.0 0.0 0.0
-21.406 0.0 0.0 0.0 0.0
-21.405 0.0 0.0 0.0 0.0
-21.404 0.0 0.0 0.0 0.0
-21.403 0.0 0.0 0.0 0.0
-21.402 0.0 0.0 0.0 0.0
-21.401 0.0 0.0 0.0 0.0
-21.4 0.0 0.0 0.0 0.0
-21.399 0.0 0.0 0.0 0.0
-21.398 0.0 0.0 0.0 0.0
-21.397 0.0 0.0 0.0 0.0
-21.396 0.0 0.0 0.0 0.0
-21.395 0.0 0.0 0.0 0.0
-21.394 0.0 0.0 0.0 0.0
-21.393 0.0 0.0 0.0 0.0
-21.392 0.0 0.0 0.0 0.0
-21.391 0.0 0.0 0.0 0.0
-21.39 0.0 0.0 0.0 0.0
-21.389 0.0 0.0 0.0 0.0
-21.388 0.0 0.0 0.0 0.0
-21.387 0.0 0.0 0.0 0.0
-21.386 0.0 0.0 0.0 0.0
-21.385 0.0 0.0 0.0 0.0
-21.384 0.0 0.0 0.0 0.0
-21.383 0.0 0.0 0.0 0.0
-21.382 0.0 0.0 0.0 0.0
-21.381 0.0 0.0 0.0 0.0
-21.38 0.0 0.0 0.0 0.0
-21.379 0.0 0.0 0.0 0.0
-21.378 0.0 0.0 0.0 0.0
-21.377 0.0 0.0 0.0 0.0
-21.376 0.0 0.0 0.0 0.0
-21.375 0.0 0.0 0.0 0.0
-21.374 0.0 0.0 0.0 0.0
-21.373 0.0 0.0 0.0 0.0
-21.372 0.0 0.0 0.0 0.0
-21.371 0.0 0.0 0.0 0.0
-21.37 0.0 0.0 0.0 0.0
-21.369 0.0 0.0 0.0 0.0
-21.368 0.0 0.0 0.0 0.0
-21.367 0.0 0.0 0.0 0.0
-21.366 0.0 0.0 0.0 0.0
-21.365 0.0 0.0 0.0 0.0
-21.364 0.0 0.0 0.0 0.0
-21.363 0.0 0.0 0.0 0.0
-21.362 0.0 0.0 0.0 0.0
-21.361 0.0 0.0 0.0 0.0
-21.36 0.0 0.0 0.0 0.0
-21.359 0.0 0.0 0.0 0.0
-21.358 0.0 0.0 0.0 0.0
-21.357 0.0 0.0 0.0 0.0
-21.356 0.0 0.0 0.0 0.0
-21.355 0.0 0.0 0.0 0.0
-21.354 0.0 0.0 0.0 0.0
-21.353 0.0 0.0 0.0 0.0
-21.352 0.0 0.0 0.0 0.0
-21.351 0.0 0.0 0.0 0.0
-21.35 0.0 0.0 0.0 0.0
-21.349 0.0 0.0 0.0 0.0
-21.348 0.0 0.0 0.0 0.0
-21.347 0.0 0.0 0.0 0.0
-21.346 0.0 0.0 0.0 0.0
-21.345 0.0 0.0 0.0 0.0
-21.344 0.0 0.0 0.0 0.0
-21.343 0.0 0.0 0.0 0.0
-21.342 0.0 0.0 0.0 0.0
-21.341 0.0 0.0 0.0 0.0
-21.34 0.0 0.0 0.0 0.0
-21.339 0.0 0.0 0.0 0.0
-21.338 0.0 0.0 0.0 0.0
-21.337 0.0 0.0 0.0 0.0
-21.336 0.0 0.0 0.0 0.0
-21.335 0.0 0.0 0.0 0.0
-21.334 0.0 0.0 0.0 0.0
-21.333 0.0 0.0 0.0 0.0
-21.332 0.0 0.0 0.0 0.0
-21.331 0.0 0.0 0.0 0.0
-21.33 0.0 0.0 0.0 0.0
-21.329 0.0 0.0 0.0 0.0
-21.328 0.0 0.0 0.0 0.0
-21.327 0.0 0.0 0.0 0.0
-21.326 0.0 0.0 0.0 0.0
-21.325 0.0 0.0 0.0 0.0
-21.324 0.0 0.0 0.0 0.0
-21.323 0.0 0.0 0.0 0.0
-21.322 0.0 0.0 0.0 0.0
-21.321 0.0 0.0 0.0 0.0
-21.32 0.0 0.0 0.0 0.0
-21.319 0.0 0.0 0.0 0.0
-21.318 0.0 0.0 0.0 0.0
-21.317 0.0 0.0 0.0 0.0
-21.316 0.0 0.0 0.0 0.0
-21.315 0.0 0.0 0.0 0.0
-21.314 0.0 0.0 0.0 0.0
-21.313 0.0 0.0 0.0 0.0
-21.312 0.0 0.0 0.0 0.0
-21.311 0.0 0.0 0.0 0.0
-21.31 0.0 0.0 0.0 0.0
-21.309 0.0 0.0 0.0 0.0
-21.308 0.0 0.0 0.0 0.0
-21.307 0.0 0.0 0.0 0.0
-21.306 0.0 0.0 0.0 0.0
-21.305 0.0 0.0 0.0 0.0
-21.304 0.0 0.0 0.0 0.0
-21.303 0.0 0.0 0.0 0.0
-21.302 0.0 0.0 0.0 0.0
-21.301 0.0 0.0 0.0 0.0
-21.3 0.0 0.0 0.0 0.0
-21.299 0.0 0.0 0.0 0.0
-21.298 0.0 0.0 0.0 0.0
-21.297 0.0 0.0 0.0 0.0
-21.296 0.0 0.0 0.0 0.0
-21.295 0.0 0.0 0.0 0.0
-21.294 0.0 0.0 0.0 0.0
-21.293 0.0 0.0 0.0 0.0
-21.292 0.0 0.0 0.0 0.0
-21.291 0.0 0.0 0.0 0.0
-21.29 0.0 0.0 0.0 0.0
-21.289 0.0 0.0 0.0 0.0
-21.288 0.0 0.0 0.0 0.0
-21.287 0.0 0.0 0.0 0.0
-21.286 0.0 0.0 0.0 0.0
-21.285 0.0 0.0 0.0 0.0
-21.284 0.0 0.0 0.0 0.0
-21.283 0.0 0.0 0.0 0.0
-21.282 0.0 0.0 0.0 0.0
-21.281 0.0 0.0 0.0 0.0
-21.28 0.0 0.0 0.0 0.0
-21.279 0.0 0.0 0.0 0.0
-21.278 0.0 0.0 0.0 0.0
-21.277 0.0 0.0 0.0 0.0
-21.276 0.0 0.0 0.0 0.0
-21.275 0.0 0.0 0.0 0.0
-21.274 0.0 0.0 0.0 0.0
-21.273 0.0 0.0 0.0 0.0
-21.272 0.0 0.0 0.0 0.0
-21.271 0.0 0.0 0.0 0.0
-21.27 0.0 0.0 0.0 0.0
-21.269 0.0 0.0 0.0 0.0
-21.268 0.0 0.0 0.0 0.0
-21.267 0.0 0.0 0.0 0.0
-21.266 0.0 0.0 0.0 0.0
-21.265 0.0 0.0 0.0 0.0
-21.264 0.0 0.0 0.0 0.0
-21.263 0.0 0.0 0.0 0.0
-21.262 0.0 0.0 0.0 0.0
-21.261 0.0 0.0 0.0 0.0
-21.26 0.0 0.0 0.0 0.0
-21.259 0.0 0.0 0.0 0.0
-21.258 0.0 0.0 0.0 0.0
-21.257 0.0 0.0 0.0 0.0
-21.256 0.0 0.0 0.0 0.0
-21.255 0.0 0.0 0.0 0.0
-21.254 0.0 0.0 0.0 0.0
-21.253 0.0 0.0 0.0 0.0
-21.252 0.0 0.0 0.0 0.0
-21.251 0.0 0.0 0.0 0.0
-21.25 0.0 0.0 0.0 0.0
-21.249 0.0 0.0 0.0 0.0
-21.248 0.0 0.0 0.0 0.0
-21.247 0.0 0.0 0.0 0.0
-21.246 0.0 0.0 0.0 0.0
-21.245 0.0 0.0 0.0 0.0
-21.244 7.07585 0.0612747174037 3.510739 3.508359
-21.243 6.73603 0.0403050225173 3.350456 3.35068
-21.242 5.22739 0.0208543897985 2.602024 2.60272
-21.241 7.1848 0.014378669636 3.587793 3.58863
-21.24 4.92847 0.00652960713469 2.461169 2.4612
-21.239 2.9741 0.00445990298195 1.485119 1.485003
-21.238 2.66519 0.00320736591569 1.331216 1.331132
-21.237 2.02815 0.00195772258947 1.013641 1.013634
-21.236 1.36752 0.00115074469716 0.683099 0.683203
-21.235 1.28435 0.00090773544562 0.641641 0.642082
-21.234 1.19893 0.00069614147891 0.598995 0.59934
-21.233 1.11078 0.000512270191896 0.555009 0.555167
-21.232 1.01932 0.000355820094336 0.509411 0.509676
-21.231 0.50926 0.000135959620768 0.254584 0.25462
-21.23 0.456374 0.000107317893191 0.228199 0.228102
-21.229 0.401786 8.1773048412e-05 0.200839 0.200862
-21.228 0.345312 5.9755371081e-05 0.172723 0.17272
-21.227 0.287403 4.1169135795e-05 0.1437437 0.143724
-21.226 0.227844 2.60096318243e-05 0.1139211 0.1138976
-21.225 0.166518 1.43527991977e-05 0.0832582 0.0832544
-21.224 0.1035482 6.055929171e-06 0.0517796 0.0517749
-21.223 0.03891574 1.2308730846e-06 0.01945658 0.01946046
-21.222 0.0 0.0 0.0 0.0
-21.221 0.02112923 6.0896116186e-07 0.01056311 0.01055727
-21.22 0.0590131 2.91542269155e-06 0.0295038 0.0295017
-21.219 0.0978261 6.8056434207e-06 0.0489183 0.0489126
-21.218 0.137538 1.22690901988e-05 0.068761 0.068766
-21.217 0.178215 1.93456005078e-05 0.0890889 0.0891054
-21.216 0.219713 2.79297256124e-05 0.109856 0.1098994
-21.215 0.262233 3.810078658e-05 0.131084 0.131108
-21.214 0.305795 4.9892367989e-05 0.152825 0.152829
-21.213 0.350096 6.3234860061e-05 0.175018 0.175004
-21.212 0.39524 7.8135514315e-05 0.197628 0.197642
-21.211 0.44146 9.4714568905e-05 0.220729 0.220632
-21.21 0.48896 0.000112722611115 0.244298 0.244233
-21.209 0.57485 0.000151188236052 0.287426 0.28735
-21.208 0.60317 0.000184636028758 0.301454 0.301573
-21.207 0.63197 0.000219320905808 0.315904 0.315902
-21.206 0.66142 0.00025710477301 0.330378 0.330482
-21.205 0.69083 0.0002974256557 0.345336 0.345155
-21.204 0.7211 0.000339749438941 0.360245 0.360403
-21.203 0.7516 0.000384382348811 0.375581 0.375525
-21.202 0.78228 0.000431012221841 0.391057 0.391147
-21.201 0.81432 0.000479945131313 0.406861 0.40679
-21.2 0.84573 0.000531181028946 0.422771 0.422739
-21.199 0.87874 0.000584719910543 0.438996 0.439048
-21.198 0.91396 0.000647871255013 0.456808 0.456871
-21.197 0.95191 0.000721243720819 0.475644 0.47553
-21.196 0.98962 0.00080451850348 0.494388 0.494538
-21.195 1.02828 0.000899008878104 0.51353 0.513617
-21.194 1.06306 0.000998780379552 0.531106 0.530863
-21.193 1.09225 0.0010982418405 0.545412 0.545659
-21.192 1.12128 0.0011972947447 0.560098 0.560147
-21.191 1.15177 0.00130735595715 0.575188 0.5751
-21.19 1.1812 0.00141802317123 0.59014 0.59016
-21.189 1.21205 0.00152868824591 0.60546 0.60536
-21.188 1.24271 0.00163996145432 0.62057 0.62066
-21.187 1.27389 0.00176123499998 0.63619 0.63606
-21.186 1.30606 0.00187280512114 0.6516 0.65166
-21.185 1.3367 0.00200498460021 0.6675 0.6676
-21.184 1.36885 0.00212716974548 0.68344 0.68356
-21.183 1.62094 0.0029913536709 0.8094 0.80934
-21.182 1.692 0.00337780124436 0.84457 0.84435
-21.181 1.76349 0.00377730560205 0.87969 0.87958
-21.18 1.83472 0.00418674950363 0.9154 0.91514
-21.179 1.90763 0.00461625069238 0.95103 0.95136
-21.178 1.98044 0.0050587512276 0.98769 0.98782
-21.177 2.05336 0.00551125144581 1.02436 1.02426
-21.176 2.08549 0.00588759986418 1.0396 1.03956
-21.175 2.07693 0.00600963427307 1.0354 1.03565
-21.174 1.8971 0.00513446883327 0.94616 0.94621
-21.173 1.71597 0.00422930760695 0.85535 0.85544
-21.172 1.53084 0.00328808687399 0.7638 0.76379
-21.171 1.46651 0.00294499279922 0.73159 0.73186
-21.17 1.44045 0.00281192008269 0.71874 0.7189
-21.169 1.41352 0.00267944997186 0.70529 0.70542
-21.168 1.38555 0.00255697658495 0.69171 0.69176
-21.167 1.36282 0.00242482830319 0.68052 0.68054
-21.166 1.34218 0.0023029834581 0.66971 0.66993
-21.165 1.31809 0.00217053223554 0.65821 0.65829
-21.164 1.25994 0.00199344758283 0.62895 0.6288
-21.163 1.20123 0.00179364254336 0.59953 0.59967
-21.162 1.15171 0.00159478143341 0.57508 0.57505
-21.161 1.13881 0.00152871167409 0.56838 0.56849
-21.16 1.12495 0.00147294226155 0.56195 0.56187
-21.159 1.11108 0.00141748182573 0.55487 0.55502
-21.158 1.09707 0.00135201199214 0.548 0.54801
-21.157 1.0825 0.00130684541669 0.54078 0.540678
-21.156 1.0673 0.00125167491816 0.53317 0.533
-21.155 1.05192 0.00119710824057 0.525572 0.525423
-21.154 1.03611 0.00115254063864 0.517512 0.517551
-21.153 1.53898 0.00116225906516 0.76887 0.768898
-21.152 2.16233 0.00136209751246 1.08053 1.08051
-21.151 2.41172 0.00166428841762 1.20503 1.20501
-21.15 2.71642 0.00203456627282 1.35617 1.35665
-21.149 2.97414 0.00245888112939 1.48619 1.48607
-21.148 3.21742 0.00295007084578 1.6067 1.60663
-21.147 3.3759 0.00348211922559 1.68621 1.68609
-21.146 3.5365 0.00404723055069 1.76639 1.76606
-21.145 3.6982 0.00465833214986 1.84736 1.8464
-21.144 3.8607 0.0053124933676 1.92747 1.92759
-21.143 3.869 0.00559973136849 1.93221 1.93173
-21.142 3.9336 0.005999308418 1.96326 1.96395
-21.141 3.9888 0.00640882410683 1.99171 1.99226
-21.14 4.0779 0.00691761441092 2.03568 2.03511
-21.139 4.2164 0.00757171224703 2.10388 2.1047
-21.138 4.3578 0.00825878008053 2.17411 2.17385
-21.137 4.4977 0.00898893699904 2.24474 2.24527
-21.136 4.643 0.00975512479423 2.31576 2.31588
-21.135 4.9578 0.0107331509583 2.47331 2.4734
-21.134 5.5967 0.0121318504609 2.79105 2.79108
-21.133 6.0097 0.0132515570771 3.00021 3.00035
-21.132 6.4417 0.0145774771695 3.21344 3.21292
-21.131 6.8723 0.0160245747601 3.4284 3.42767
-21.13 7.3073 0.0176896976148 3.64454 3.64308
-21.129 9.6286 0.0238041293901 4.80356 4.80408
-21.128 7.9295 0.0209069408137 3.95118 3.95282
-21.127 6.84 0.0205508815027 3.41031 3.41067
-21.126 5.8721 0.0200862307706 2.92528 2.92612
-21.125 7.6011 0.0203488973428 3.78886 3.78888
-21.124 6.6394 0.0185635207581 3.31288 3.31237
-21.123 4.8113 0.0169890299373 2.39714 2.39685
-21.122 2.93715 0.0157291779194 1.4607 1.460837
-21.121 2.26295 0.0145022470066 1.124086 1.124164
-21.12 1.98722 0.0131741785617 0.986596 0.98691
-21.119 2.12204 0.0144986705804 1.053618 1.053766
-21.118 2.38702 0.0168203118283 1.184164 1.184371
-21.117 2.64992 0.0192570554515 1.315644 1.315703
-21.116 2.56456 0.0192507197817 1.273104 1.2726871
-21.115 1.78448 0.0138247840463 0.885022 0.8852289
-21.114 0.995669 0.00790951008166 0.494109 0.4937482
-21.113 0.19878 0.00162612841446 0.09854146 0.098561107
-21.112 0.0 0.0 0.0 0.0
-21.111 0.0 0.0 0.0 0.0
-21.11 0.0 0.0 0.0 0.0
-21.109 0.0 0.0 0.0 0.0
-21.108 0.0 0.0 0.0 0.0
-21.107 0.0 0.0 0.0 0.0
-21.106 0.0 0.0 0.0 0.0
-21.105 0.0 0.0 0.0 0.0
-21.104 0.0 0.0 0.0 0.0
-21.103 0.0 0.0 0.0 0.0
-21.102 0.0 0.0 0.0 0.0
-21.101 0.0 0.0 0.0 0.0
-21.1 0.0 0.0 0.0 0.0
-21.099 0.0 0.0 0.0 0.0
-21.098 0.0 0.0 0.0 0.0
-21.097 0.0 0.0 0.0 0.0
-21.096 0.0 0.0 0.0 0.0
-21.095 0.0 0.0 0.0 0.0
-21.094 0.0 0.0 0.0 0.0
-21.093 0.0 0.0 0.0 0.0
-21.092 0.0 0.0 0.0 0.0
-21.091 0.0 0.0 0.0 0.0
-21.09 0.0 0.0 0.0 0.0
-21.089 0.0 0.0 0.0 0.0
-21.088 0.0 0.0 0.0 0.0
-21.087 0.0 0.0 0.0 0.0
-21.086 0.0 0.0 0.0 0.0
-21.085 0.0 0.0 0.0 0.0
-21.084 0.0 0.0 0.0 0.0
-21.083 0.0 0.0 0.0 0.0
-21.082 0.0 0.0 0.0 0.0
-21.081 0.0 0.0 0.0 0.0
-21.08 0.0 0.0 0.0 0.0
-21.079 0.0 0.0 0.0 0.0
-21.078 0.0 0.0 0.0 0.0
-21.077 0.0 0.0 0.0 0.0
-21.076 0.0 0.0 0.0 0.0
-21.075 0.015369 1.0416528474e-07 0.0076829 0.0076828
-21.074 14.4366 0.0048247092923 7.2144 7.2139
-21.073 5.2167 0.00189988257621 2.60741 2.60766
-21.072 4.8522 0.00191922935868 2.4235 2.42501
-21.071 4.47937 0.00201529269799 2.2405 2.24026
-21.07 4.11038 0.00217795236297 2.05362 2.05342
-21.069 3.86673 0.00237610500107 1.9325 1.93189
-21.068 3.2144 0.00253996770275 1.60532 1.6054
-21.067 3.15377 0.00267328280884 1.57493 1.57531
-21.066 3.11011 0.00280570559591 1.55336 1.55337
-21.065 3.06927 0.00293782512262 1.53289 1.53371
-21.064 3.02787 0.00304874115807 1.51262 1.51256
-21.063 2.98264 0.00314779324868 1.49033 1.49052
-21.062 2.94003 0.00325690163845 1.4673 1.46704
-21.061 2.89171 0.00339194671798 1.44374 1.44319
-21.06 2.84102 0.00354704857356 1.41966 1.41935
-21.059 2.79516 0.00374514988515 1.39528 1.39514
-21.058 2.83461 0.00396654886881 1.41475 1.41424
-21.057 2.82156 0.00415473876356 1.4093 1.4096
-21.056 2.8131 0.00433292504735 1.404953 1.40458
-21.055 2.80283 0.00452117133544 1.399934 1.39968
-21.054 2.79422 0.00471935788569 1.394435 1.39464
-21.053 2.88962 0.0049176096523 1.442663 1.44255
-21.052 3.06599 0.00519493354587 1.53093 1.53086
-21.051 3.24532 0.00547232347764 1.6198 1.6196
-21.05 3.42518 0.00576971439748 1.70965 1.7098
-21.049 3.6059 0.00608010476057 1.80043 1.80039
-21.048 3.7979 0.0064005660896 1.89521 1.895
-21.047 4.0312 0.00680023249402 2.01182 2.01186
-21.046 3.7555 0.00728878424136 1.87462 1.87429
-21.045 3.8886 0.0077874447042 1.94035 1.94097
-21.044 4.0219 0.00829616150443 2.00721 2.00773
-21.043 4.1575 0.0088178789361 2.07419 2.07445
-21.042 4.3564 0.00948187492629 2.17277 2.17311
-21.041 4.5672 0.0102149948658 2.27879 2.27838
-21.04 4.7816 0.0109881145285 2.38583 2.38542
-21.039 4.996 0.0117702278606 2.49262 2.49241
-21.038 5.2585 0.0128767223243 2.62335 2.62306
-21.037 5.7241 0.0149804989941 2.85424 2.85357
-21.036 6.2017 0.0171902686198 3.09208 3.09167
-21.035 6.6811 0.0194091514821 3.33124 3.33092
-21.034 14.2615 0.0511951924048 7.1065 7.1069
-21.033 4.6811 0.0151832594454 2.3333 2.33246
-21.032 3.253 0.00848249822775 1.62252 1.62273
-21.031 1.81324 0.000993025644107 0.90637 0.90645
-21.03 1.6644 0.000434214823241 0.83186 0.83201
-21.029 1.60581 0.000390518460545 0.80264 0.80256
-21.028 1.56927 0.000353138175746 0.78463 0.7847
-21.027 1.53292 0.000320363979189 0.76639 0.76642
-21.026 1.49687 0.000292180858403 0.74817 0.74824
-21.025 1.4598 0.000267306770024 0.72969 0.72973
-21.024 1.42256 0.000247603794686 0.7112 0.7113
-21.023 1.38516 0.000231446829103 0.69256 0.69247
-21.022 1.34789 0.000219707013097 0.67382 0.67374
-21.021 1.30999 0.000212387190793 0.65492 0.65483
-21.02 1.27186 0.000210454457406 0.63576 0.63588
-21.019 1.23368 0.000210943842391 0.61668 0.61663
-21.018 1.19508 0.000216852483519 0.59746 0.59741
-21.017 1.20328 0.000226638662876 0.60153 0.60154
-21.016 1.23221 0.000236696678578 0.61602 0.61599
-21.015 1.26167 0.00024572466121 0.63065 0.63063
-21.014 1.31277 0.000256084892906 0.65614 0.65616
-21.013 1.34965 0.000266686050407 0.67469 0.67474
-21.012 1.36453 0.000269309742968 0.68218 0.68214
-21.011 1.41289 0.000289840408652 0.70616 0.70623
-21.01 1.4608 0.000313374676652 0.7303 0.73022
-21.009 1.50914 0.000338517767689 0.75436 0.75446
-21.008 1.5581 0.000367657839053 0.77888 0.77884
-21.007 1.60708 0.000398100822536 0.80329 0.80332
-21.006 1.65631 0.000431849862425 0.82789 0.82783
-21.005 1.70563 0.000467901674409 0.85264 0.8526
-21.004 1.75763 0.000506950712204 0.87861 0.87855
-21.003 1.81107 0.000546314663359 0.90512 0.90506
-21.002 1.86418 0.000586672621692 0.93166 0.93174
-21.001 1.91827 0.000628336551525 0.95833 0.95841
-21.0 1.9712 0.00067170348943 0.9852 0.98526
-20.999 2.02563 0.000715667282321 1.01236 1.01238
-20.998 2.07879 0.000760340051627 1.0395 1.03949
-20.997 2.13416 0.000806312486026 1.0669 1.06693
-20.996 2.18899 0.000853285820819 1.09437 1.0943
-20.995 2.24439 0.000901561345664 1.12186 1.12181
-20.994 2.29996 0.000950543230495 1.14972 1.14969
-20.993 2.35685 0.00100212480335 1.17762 1.1775
-20.992 2.4099 0.00105341245518 1.20561 1.20561
-20.991 2.6339 0.00118155412725 1.31654 1.3164
-20.99 2.6767 0.00123708924194 1.33751 1.3378
-20.989 2.7233 0.00130353390277 1.36112 1.3611
-20.988 2.7994 0.00140394930679 1.39911 1.39916
-20.987 2.8771 0.00151526404229 1.43752 1.43761
-20.986 2.9407 0.00163685974234 1.46959 1.46983
-20.985 2.9889 0.00174783344209 1.4937 1.49371
-20.984 3.039 0.00185911059445 1.51829 1.51859
-20.983 3.0881 0.001980990224 1.54276 1.54284
-20.982 3.1348 0.00210317283005 1.56745 1.56738
-20.981 3.1863 0.00223565847185 1.59189 1.59183
-20.98 3.2362 0.00236877134799 1.61679 1.61661
-20.979 3.2859 0.00250210588604 1.64216 1.64164
-20.978 3.3364 0.00264580052873 1.66628 1.66636
-20.977 3.3872 0.00278979503936 1.69158 1.69158
-20.976 3.435 0.00293438661522 1.71583 1.71574
-20.975 3.49 0.00309054855343 1.7431 1.74309
-20.974 3.5477 0.00324581655871 1.77224 1.77261
-20.973 3.6077 0.00340102191913 1.80187 1.80153
-20.972 3.6664 0.00354629053194 1.83097 1.8314
-20.971 3.7263 0.00370155883233 1.86132 1.86088
-20.97 4.3506 0.00502303498898 2.17187 2.17162
-20.969 5.5102 0.00743132842111 2.75139 2.75206
-20.968 6.6661 0.00976316064782 3.32828 3.3284
-20.967 7.809 0.0120054668722 3.8986 3.8981
-20.966 8.9453 0.0142183128693 4.4648 4.4658
-20.965 5.2711 0.00629860490199 2.63181 2.63263
-20.964 4.9589 0.00542336065394 2.47708 2.47713
-20.963 4.6471 0.0046141839605 2.32211 2.32153
-20.962 4.3368 0.00388412738869 2.16604 2.1667
-20.961 4.027 0.00324019786523 2.01167 2.01159
-20.96 3.7167 0.0026638352781 1.85724 1.85688
-20.959 3.4085 0.00216473214997 1.70294 1.70286
-20.958 3.2563 0.0018979411746 1.62795 1.62778
-20.957 3.1552 0.00168817423137 1.57627 1.57655
-20.956 3.051 0.00149924977463 1.52455 1.52473
-20.955 2.9436 0.00133209309467 1.47171 1.47164
-20.954 2.8388 0.00117611772335 1.41847 1.41835
-20.953 2.7294 0.00103161664116 1.36417 1.36397
-20.952 3.1692 0.00110933148191 1.58518 1.58555
-20.951 3.1324 0.000974313758053 1.56551 1.56557
-20.95 3.0838 0.000846195096418 1.54169 1.5417
-20.949 3.0362 0.000725369740834 1.51814 1.51829
-20.948 2.99008 0.000612440990496 1.49409 1.49413
-20.947 2.93827 0.000507394277701 1.46971 1.46973
-20.946 2.89119 0.000409634265502 1.44484 1.44497
-20.945 2.84042 0.000319768434661 1.41999 1.42003
-20.944 2.7902 0.000237492670206 1.39485 1.39469
-20.943 2.63893 0.000162050743891 1.31927 1.31934
-20.942 0.79522 0.000103472282342 0.397574 0.397552
-20.941 0.75896 0.000111098341027 0.379451 0.379451
-20.94 0.76671 0.000120342059867 0.383535 0.383423
-20.939 0.77508 0.000130315806115 0.387491 0.387536
-20.938 0.78332 0.000141351022432 0.391523 0.391581
-20.937 0.79134 0.000152477172274 0.39561 0.395623
-20.936 0.80453 0.00016581701444 0.402086 0.402116
-20.935 0.82103 0.000183493932714 0.410442 0.410458
-20.934 0.838 0.000203476644072 0.418903 0.418847
-20.933 0.8549 0.000225766068511 0.427469 0.427443
-20.932 0.8726 0.000252361291198 0.436158 0.436158
-20.931 1.1371 0.000525181863098 0.568289 0.56823
-20.93 1.52955 0.000922375335472 0.764269 0.76433
-20.929 1.92172 0.00131560707862 0.960139 0.96015
-20.928 2.31274 0.00169916394083 1.15554 1.15546
-20.927 2.70387 0.00208177186869 1.35064 1.35068
-20.926 3.09359 0.00245370214945 1.54589 1.5456
-20.925 3.48365 0.0028259187439 1.74019 1.74001
-20.924 3.8733 0.00318650125571 1.93493 1.93449
-20.923 4.8202 0.00409684962285 2.40719 2.4077
-20.922 6.4502 0.0055201326754 3.22232 3.22259
-20.921 8.067 0.00669583063061 4.03143 4.03123
-20.92 9.6752 0.00763673439597 4.83389 4.83374
-20.919 16.2718 0.011761862883 8.12955 8.13
-20.918 15.9711 0.0103246035285 7.9785 7.9799
-20.917 17.8709 0.00958161741082 8.929 8.9291
-20.916 13.9494 0.00791551305661 6.9722 6.9709
-20.915 9.1851 0.00612057125342 4.5893 4.5892
-20.914 7.811 0.00596300105246 3.90268 3.90202
-20.913 6.4451 0.0057597521389 3.21873 3.21976
-20.912 5.0874 0.00553697319188 2.54055 2.54071
-20.911 3.958 0.00488892889427 1.97672 1.97719
-20.91 2.65455 0.00284179779991 1.32617 1.32613
-20.909 2.09943 0.00176030948818 1.048794 1.048903
-20.908 2.03891 0.00184825773078 1.018832 1.018714
-20.907 1.97785 0.00193560853163 0.988331 0.988319
-20.906 1.91734 0.00201205355508 0.957988 0.957955
-20.905 1.85687 0.002077592996 0.927431 0.927319
-20.904 1.79566 0.0021322326579 0.896869 0.896827
-20.903 1.73463 0.00218626350151 0.866193 0.8662891
-20.902 1.67297 0.00222939423419 0.835465 0.8353855
-20.901 1.61172 0.00226161603305 0.804573 0.8047191
-20.9 1.56077 0.00228323880269 0.779201 0.7792571
-20.899 1.54039 0.00230396299861 0.76893 0.768819
-20.898 1.61131 0.00244789293594 0.80472 0.804657
-20.897 1.75524 0.002714667876 0.87606 0.876055
-20.896 1.8979 0.00301386974761 0.94795 0.947974
-20.895 2.04539 0.00334639252573 1.02021 1.020329
-20.894 4.16384 0.00849470781444 2.07749 2.07785
-20.893 4.8129 0.00996176793621 2.40139 2.40144
-20.892 4.8847 0.0100641286013 2.43596 2.43624
-20.891 5.0623 0.0103186899812 2.52591 2.52617
-20.89 5.2381 0.0104771142113 2.61359 2.61273
-20.889 5.4116 0.0105533443646 2.69997 2.69983
-20.888 5.5821 0.0105334975252 2.78552 2.78528
-20.887 5.7329 0.0104344495137 2.86138 2.86205
-20.886 5.5756 0.0102097249313 2.78358 2.78341
-20.885 5.4197 0.00991894375784 2.70484 2.70468
-20.884 5.2606 0.00955210287709 2.62648 2.62574
-20.883 5.1008 0.00912920554542 2.54569 2.54661
-20.882 4.9403 0.00863025064165 2.46491 2.46552
-20.881 4.776 0.00805223567544 2.38434 2.38437
-20.88 4.6219 0.0074412241533 2.30676 2.30737
-20.879 4.607 0.00723965872675 2.30009 2.29975
-20.878 4.5924 0.00699508958241 2.29242 2.29267
-20.877 4.5741 0.00671739642138 2.28402 2.28419
-20.876 4.5568 0.00639370058386 2.27531 2.27513
-20.875 4.6689 0.0062717520926 2.33213 2.33194
-20.874 4.8122 0.00625183458159 2.40294 2.40199
-20.873 4.9534 0.00623885127731 2.47224 2.47322
-20.872 5.0939 0.0062289242756 2.54265 2.54365
-20.871 5.2329 0.00621893681552 2.61396 2.61427
-20.87 5.3742 0.00621894204205 2.68368 2.68417
-20.869 5.5138 0.00620594425345 2.75313 2.75446
-20.868 5.654 0.00620594302908 2.82394 2.82365
-20.867 5.7942 0.00619588040741 2.89404 2.89399
-20.866 5.957 0.00629500920398 2.97454 2.97394
-20.865 5.4692 0.0063142706252 2.73272 2.73134
-20.864 4.6718 0.00632335994762 2.33223 2.33352
-20.863 3.8853 0.00632962568454 1.93996 1.93995
-20.862 3.4144 0.00635928908536 1.70486 1.70547
-20.861 3.3654 0.0064152720468 1.67999 1.6801
-20.86 3.3367 0.00647132249633 1.66525 1.66553
-20.859 3.307 0.00651431506387 1.65092 1.65079
-20.858 3.2777 0.00657030550638 1.63572 1.63591
-20.857 3.2468 0.00660335858932 1.62097 1.6206
-20.856 3.2178 0.00664634869008 1.60544 1.60563
-20.855 3.1885 0.00668234179534 1.59061 1.59038
-20.854 3.15736 0.0067153311208 1.57452 1.57471