# E (eV)  dos(E)    pdos(E)
 -22.244  0.000E+00  0.000E+00
 -22.243  0.299E+00  0.297E+00
 -22.242  0.258E+00  0.256E+00
 -22.241  0.283E+00  0.280E+00
 -22.240  0.308E+00  0.305E+00
 -22.239  0.333E+00  0.330E+00
 -22.238  0.302E+00  0.299E+00
 -22.237  0.284E+00  0.281E+00
 -22.236  0.293E+00  0.290E+00
 -22.235  0.301E+00  0.298E+00
 -22.234  0.310E+00  0.307E+00
 -22.233  0.319E+00  0.316E+00
 -22.232  0.299E+00  0.296E+00
 -22.231  0.297E+00  0.294E+00
 -22.230  0.295E+00  0.292E+00
 -22.229  0.293E+00  0.290E+00
 -22.228  0.297E+00  0.295E+00
 -22.227  0.302E+00  0.299E+00
 -22.226  0.306E+00  0.303E+00
 -22.225  0.311E+00  0.308E+00
 -22.224  0.315E+00  0.312E+00
 -22.223  0.304E+00  0.301E+00
 -22.222  0.296E+00  0.293E+00
 -22.221  0.297E+00  0.294E+00
 -22.220  0.297E+00  0.295E+00
 -22.219  0.298E+00  0.295E+00
 -22.218  0.299E+00  0.296E+00
 -22.217  0.300E+00  0.297E+00
 -22.216  0.303E+00  0.300E+00
 -22.215  0.306E+00  0.303E+00
 -22.214  0.308E+00  0.305E+00
 -22.213  0.311E+00  0.308E+00
 -22.212  0.303E+00  0.300E+00
 -22.211  0.301E+00  0.298E+00
 -22.210  0.299E+00  0.296E+00
 -22.209  0.297E+00  0.294E+00
 -22.208  0.298E+00  0.295E+00
 -22.207  0.299E+00  0.296E+00
 -22.206  0.300E+00  0.297E+00
 -22.205  0.301E+00  0.298E+00
 -22.204  0.302E+00  0.299E+00
 -22.203  0.303E+00  0.300E+00
 -22.202  0.304E+00  0.301E+00
 -22.201  0.306E+00  0.303E+00
 -22.200  0.308E+00  0.305E+00
 -22.199  0.309E+00  0.306E+00
 -22.198  0.304E+00  0.301E+00
 -22.197  0.300E+00  0.297E+00
 -22.196  0.300E+00  0.297E+00
 -22.195  0.300E+00  0.297E+00
 -22.194  0.299E+00  0.296E+00
 -22.193  0.299E+00  0.296E+00
 -22.192  0.299E+00  0.296E+00
 -22.191  0.300E+00  0.297E+00
 -22.190  0.301E+00  0.298E+00
 -22.189  0.302E+00  0.299E+00
 -22.188  0.303E+00  0.300E+00
 -22.187  0.303E+00  0.301E+00
 -22.186  0.304E+00  0.301E+00
 -22.185  0.305E+00  0.302E+00
 -22.184  0.306E+00  0.303E+00
 -22.183  0.308E+00  0.304E+00
 -22.182  0.304E+00  0.301E+00
 -22.181  0.302E+00  0.299E+00
 -22.180  0.301E+00  0.298E+00
 -22.179  0.300E+00  0.297E+00
 -22.178  0.300E+00  0.297E+00
 -22.177  0.300E+00  0.297E+00
 -22.176  0.300E+00  0.297E+00
 -22.175  0.300E+00  0.297E+00
 -22.174  0.300E+00  0.297E+00
 -22.173  0.301E+00  0.298E+00
 -22.172  0.301E+00  0.298E+00
 -22.171  0.302E+00  0.299E+00
 -22.170  0.302E+00  0.299E+00
 -22.169  0.303E+00  0.300E+00
 -22.168  0.304E+00  0.301E+00
 -22.167  0.305E+00  0.302E+00
 -22.166  0.305E+00  0.302E+00
 -22.165  0.306E+00  0.303E+00
 -22.164  0.307E+00  0.304E+00
 -22.163  0.304E+00  0.301E+00
 -22.162  0.301E+00  0.298E+00
 -22.161  0.301E+00  0.298E+00
 -22.160  0.301E+00  0.298E+00
 -22.159  0.300E+00  0.297E+00
 -22.158  0.300E+00  0.297E+00
 -22.157  0.300E+00  0.297E+00
 -22.156  0.300E+00  0.297E+00
 -22.155  0.301E+00  0.298E+00
 -22.154  0.301E+00  0.298E+00
 -22.153  0.301E+00  0.298E+00
 -22.152  0.302E+00  0.299E+00
 -22.151  0.302E+00  0.299E+00
 -22.150  0.302E+00  0.299E+00
 -22.149  0.302E+00  0.299E+00
 -22.148  0.303E+00  0.300E+00
 -22.147  0.304E+00  0.301E+00
 -22.146  0.304E+00  0.301E+00
 -22.145  0.305E+00  0.302E+00
 -22.144  0.306E+00  0.303E+00
 -22.143  0.306E+00  0.303E+00
 -22.142  0.304E+00  0.301E+00
 -22.141  0.303E+00  0.300E+00
 -22.140  0.302E+00  0.299E+00
 -22.139  0.301E+00  0.298E+00
 -22.138  0.301E+00  0.298E+00
 -22.137  0.301E+00  0.298E+00
 -22.136  0.301E+00  0.298E+00
 -22.135  0.301E+00  0.298E+00
 -22.134  0.301E+00  0.298E+00
 -22.133  0.301E+00  0.298E+00
 -22.132  0.301E+00  0.298E+00
 -22.131  0.301E+00  0.298E+00
 -22.130  0.302E+00  0.298E+00
 -22.129  0.302E+00  0.299E+00
 -22.128  0.302E+00  0.299E+00
 -22.127  0.303E+00  0.300E+00
 -22.126  0.303E+00  0.300E+00
 -22.125  0.303E+00  0.300E+00
 -22.124  0.304E+00  0.301E+00
 -22.123  0.304E+00  0.301E+00
 -22.122  0.304E+00  0.301E+00
 -22.121  0.305E+00  0.302E+00
 -22.120  0.305E+00  0.302E+00
 -22.119  0.306E+00  0.303E+00
 -22.118  0.304E+00  0.301E+00
 -22.117  0.302E+00  0.299E+00
 -22.116  0.302E+00  0.299E+00
 -22.115  0.302E+00  0.299E+00
 -22.114  0.301E+00  0.298E+00
 -22.113  0.301E+00  0.298E+00
 -22.112  0.301E+00  0.298E+00
 -22.111  0.301E+00  0.298E+00
 -22.110  0.301E+00  0.298E+00
 -22.109  0.301E+00  0.298E+00
 -22.108  0.301E+00  0.298E+00
 -22.107  0.301E+00  0.298E+00
 -22.106  0.301E+00  0.298E+00
 -22.105  0.302E+00  0.299E+00
 -22.104  0.302E+00  0.299E+00
 -22.103  0.302E+00  0.299E+00
 -22.102  0.302E+00  0.299E+00
 -22.101  0.303E+00  0.300E+00
 -22.100  0.303E+00  0.300E+00
 -22.099  0.303E+00  0.300E+00
 -22.098  0.304E+00  0.301E+00
 -22.097  0.304E+00  0.301E+00
 -22.096  0.304E+00  0.301E+00
 -22.095  0.305E+00  0.302E+00
 -22.094  0.305E+00  0.302E+00
 -22.093  0.305E+00  0.302E+00
 -22.092  0.304E+00  0.300E+00
 -22.091  0.303E+00  0.300E+00
 -22.090  0.302E+00  0.299E+00
 -22.089  0.302E+00  0.299E+00
 -22.088  0.302E+00  0.299E+00
 -22.087  0.301E+00  0.298E+00
 -22.086  0.301E+00  0.298E+00
 -22.085  0.301E+00  0.298E+00
 -22.084  0.301E+00  0.298E+00
 -22.083  0.301E+00  0.298E+00
 -22.082  0.301E+00  0.298E+00
 -22.081  0.301E+00  0.298E+00
 -22.080  0.302E+00  0.298E+00
 -22.079  0.302E+00  0.299E+00
 -22.078  0.302E+00  0.299E+00
 -22.077  0.302E+00  0.299E+00
 -22.076  0.302E+00  0.299E+00
 -22.075  0.302E+00  0.299E+00
 -22.074  0.303E+00  0.299E+00
 -22.073  0.303E+00  0.300E+00
 -22.072  0.303E+00  0.300E+00
 -22.071  0.303E+00  0.300E+00
 -22.070  0.304E+00  0.300E+00
 -22.069  0.304E+00  0.301E+00
 -22.068  0.304E+00  0.301E+00
 -22.067  0.304E+00  0.301E+00
 -22.066  0.305E+00  0.302E+00
 -22.065  0.305E+00  0.302E+00
 -22.064  0.305E+00  0.302E+00
 -22.063  0.304E+00  0.301E+00
 -22.062  0.303E+00  0.300E+00
 -22.061  0.302E+00  0.299E+00
 -22.060  0.302E+00  0.299E+00
 -22.059  0.302E+00  0.299E+00
 -22.058  0.302E+00  0.299E+00
 -22.057  0.301E+00  0.298E+00
 -22.056  0.301E+00  0.298E+00
 -22.055  0.302E+00  0.298E+00
 -22.054  0.302E+00  0.299E+00
 -22.053  0.302E+00  0.299E+00
 -22.052  0.302E+00  0.299E+00
 -22.051  0.302E+00  0.299E+00
 -22.050  0.302E+00  0.299E+00
 -22.049  0.302E+00  0.299E+00
 -22.048  0.302E+00  0.299E+00
 -22.047  0.302E+00  0.299E+00
 -22.046  0.302E+00  0.299E+00
 -22.045  0.302E+00  0.299E+00
 -22.044  0.303E+00  0.300E+00
 -22.043  0.303E+00  0.300E+00
 -22.042  0.303E+00  0.300E+00
 -22.041  0.303E+00  0.300E+00
 -22.040  0.303E+00  0.300E+00
 -22.039  0.304E+00  0.300E+00
 -22.038  0.304E+00  0.301E+00
 -22.037  0.304E+00  0.301E+00
 -22.036  0.304E+00  0.301E+00
 -22.035  0.305E+00  0.301E+00
 -22.034  0.305E+00  0.302E+00
 -22.033  0.305E+00  0.302E+00
 -22.032  0.304E+00  0.301E+00
 -22.031  0.303E+00  0.300E+00
 -22.030  0.303E+00  0.300E+00
 -22.029  0.302E+00  0.299E+00
 -22.028  0.302E+00  0.299E+00
 -22.027  0.302E+00  0.299E+00
 -22.026  0.302E+00  0.299E+00
 -22.025  0.302E+00  0.299E+00
 -22.024  0.302E+00  0.299E+00
 -22.023  0.302E+00  0.299E+00
 -22.022  0.302E+00  0.299E+00
 -22.021  0.302E+00  0.299E+00
 -22.020  0.302E+00  0.299E+00
 -22.019  0.302E+00  0.299E+00
 -22.018  0.302E+00  0.299E+00
 -22.017  0.302E+00  0.299E+00
 -22.016  0.302E+00  0.299E+00
 -22.015  0.302E+00  0.299E+00
 -22.014  0.302E+00  0.299E+00
 -22.013  0.302E+00  0.299E+00
 -22.012  0.303E+00  0.299E+00
 -22.011  0.303E+00  0.300E+00
 -22.010  0.303E+00  0.300E+00
 -22.009  0.303E+00  0.300E+00
 -22.008  0.303E+00  0.300E+00
 -22.007  0.303E+00  0.300E+00
 -22.006  0.304E+00  0.301E+00
 -22.005  0.304E+00  0.301E+00
 -22.004  0.304E+00  0.301E+00
 -22.003  0.304E+00  0.301E+00
 -22.002  0.304E+00  0.301E+00
 -22.001  0.305E+00  0.301E+00
 -22.000  0.305E+00  0.302E+00
 -21.999  0.305E+00  0.302E+00
 -21.998  0.304E+00  0.301E+00
 -21.997  0.303E+00  0.300E+00
 -21.996  0.303E+00  0.300E+00
 -21.995  0.303E+00  0.299E+00
 -21.994  0.302E+00  0.299E+00
 -21.993  0.302E+00  0.299E+00
 -21.992  0.302E+00  0.299E+00
 -21.991  0.302E+00  0.299E+00
 -21.990  0.302E+00  0.299E+00
 -21.989  0.302E+00  0.299E+00
 -21.988  0.302E+00  0.299E+00
 -21.987  0.302E+00  0.299E+00
 -21.986  0.302E+00  0.299E+00
 -21.985  0.302E+00  0.299E+00
 -21.984  0.302E+00  0.299E+00
 -21.983  0.302E+00  0.299E+00
 -21.982  0.302E+00  0.299E+00
 -21.981  0.302E+00  0.299E+00
 -21.980  0.302E+00  0.299E+00
 -21.979  0.303E+00  0.299E+00
 -21.978  0.303E+00  0.300E+00
 -21.977  0.303E+00  0.300E+00
 -21.976  0.303E+00  0.300E+00
 -21.975  0.303E+00  0.300E+00
 -21.974  0.303E+00  0.300E+00
 -21.973  0.303E+00  0.300E+00
 -21.972  0.303E+00  0.300E+00
 -21.971  0.304E+00  0.300E+00
 -21.970  0.304E+00  0.301E+00
 -21.969  0.304E+00  0.301E+00
 -21.968  0.304E+00  0.301E+00
 -21.967  0.304E+00  0.301E+00
 -21.966  0.304E+00  0.301E+00
 -21.965  0.305E+00  0.301E+00
 -21.964  0.305E+00  0.302E+00
 -21.963  0.305E+00  0.302E+00
 -21.962  0.304E+00  0.301E+00
 -21.961  0.303E+00  0.300E+00
 -21.960  0.303E+00  0.300E+00
 -21.959  0.303E+00  0.300E+00
 -21.958  0.303E+00  0.299E+00
 -21.957  0.302E+00  0.299E+00
 -21.956  0.302E+00  0.299E+00
 -21.955  0.302E+00  0.299E+00
 -21.954  0.302E+00  0.299E+00
 -21.953  0.302E+00  0.299E+00
 -21.952  0.302E+00  0.299E+00
 -21.951  0.302E+00  0.299E+00
 -21.950  0.302E+00  0.299E+00
 -21.949  0.302E+00  0.299E+00
 -21.948  0.302E+00  0.299E+00
 -21.947  0.302E+00  0.299E+00
 -21.946  0.302E+00  0.299E+00
 -21.945  0.303E+00  0.299E+00
 -21.944  0.303E+00  0.299E+00
 -21.943  0.303E+00  0.299E+00
 -21.942  0.303E+00  0.299E+00
 -21.941  0.303E+00  0.300E+00
 -21.940  0.303E+00  0.300E+00
 -21.939  0.303E+00  0.300E+00
 -21.938  0.303E+00  0.300E+00
 -21.937  0.303E+00  0.300E+00
 -21.936  0.303E+00  0.300E+00
 -21.935  0.303E+00  0.300E+00
 -21.934  0.304E+00  0.300E+00
 -21.933  0.304E+00  0.301E+00
 -21.932  0.304E+00  0.301E+00
 -21.931  0.304E+00  0.301E+00
 -21.930  0.304E+00  0.301E+00
 -21.929  0.304E+00  0.301E+00
 -21.928  0.304E+00  0.301E+00
 -21.927  0.305E+00  0.301E+00
 -21.926  0.305E+00  0.301E+00
 -21.925  0.305E+00  0.302E+00
 -21.924  0.305E+00  0.301E+00
 -21.923  0.304E+00  0.301E+00
 -21.922  0.303E+00  0.300E+00
 -21.921  0.303E+00  0.300E+00
 -21.920  0.303E+00  0.300E+00
 -21.919  0.303E+00  0.300E+00
 -21.918  0.303E+00  0.299E+00
 -21.917  0.303E+00  0.299E+00
 -21.916  0.303E+00  0.299E+00
 -21.915  0.303E+00  0.299E+00
 -21.914  0.303E+00  0.299E+00
 -21.913  0.302E+00  0.299E+00
 -21.912  0.302E+00  0.299E+00
 -21.911  0.302E+00  0.299E+00
 -21.910  0.302E+00  0.299E+00
 -21.909  0.303E+00  0.299E+00
 -21.908  0.303E+00  0.299E+00
 -21.907  0.303E+00  0.299E+00
 -21.906  0.303E+00  0.299E+00
 -21.905  0.303E+00  0.300E+00
 -21.904  0.303E+00  0.300E+00
 -21.903  0.303E+00  0.300E+00
 -21.902  0.303E+00  0.300E+00
 -21.901  0.303E+00  0.300E+00
 -21.900  0.303E+00  0.300E+00
 -21.899  0.303E+00  0.300E+00
 -21.898  0.303E+00  0.300E+00
 -21.897  0.303E+00  0.300E+00
 -21.896  0.303E+00  0.300E+00
 -21.895  0.304E+00  0.300E+00
 -21.894  0.304E+00  0.300E+00
 -21.893  0.304E+00  0.300E+00
 -21.892  0.304E+00  0.301E+00
 -21.891  0.304E+00  0.301E+00
 -21.890  0.304E+00  0.301E+00
 -21.889  0.304E+00  0.301E+00
 -21.888  0.304E+00  0.301E+00
 -21.887  0.304E+00  0.301E+00
 -21.886  0.305E+00  0.301E+00
 -21.885  0.305E+00  0.301E+00
 -21.884  0.305E+00  0.302E+00
 -21.883  0.305E+00  0.302E+00
 -21.882  0.304E+00  0.301E+00
 -21.881  0.304E+00  0.300E+00
 -21.880  0.303E+00  0.300E+00
 -21.879  0.303E+00  0.300E+00
 -21.878  0.303E+00  0.300E+00
 -21.877  0.303E+00  0.300E+00
 -21.876  0.303E+00  0.300E+00
 -21.875  0.303E+00  0.300E+00
 -21.874  0.303E+00  0.300E+00
 -21.873  0.303E+00  0.300E+00
 -21.872  0.303E+00  0.299E+00
 -21.871  0.303E+00  0.300E+00
 -21.870  0.303E+00  0.300E+00
 -21.869  0.303E+00  0.300E+00
 -21.868  0.303E+00  0.300E+00
 -21.867  0.303E+00  0.300E+00
 -21.866  0.303E+00  0.300E+00
 -21.865  0.303E+00  0.300E+00
 -21.864  0.303E+00  0.300E+00
 -21.863  0.303E+00  0.300E+00
 -21.862  0.303E+00  0.300E+00
 -21.861  0.303E+00  0.300E+00
 -21.860  0.303E+00  0.300E+00
 -21.859  0.303E+00  0.300E+00
 -21.858  0.303E+00  0.300E+00
 -21.857  0.303E+00  0.300E+00
 -21.856  0.303E+00  0.300E+00
 -21.855  0.303E+00  0.300E+00
 -21.854  0.304E+00  0.300E+00
 -21.853  0.304E+00  0.300E+00
 -21.852  0.304E+00  0.300E+00
 -21.851  0.304E+00  0.301E+00
 -21.850  0.304E+00  0.301E+00
 -21.849  0.304E+00  0.301E+00
 -21.848  0.304E+00  0.301E+00
 -21.847  0.304E+00  0.301E+00
 -21.846  0.304E+00  0.301E+00
 -21.845  0.304E+00  0.301E+00
 -21.844  0.304E+00  0.301E+00
 -21.843  0.305E+00  0.301E+00
 -21.842  0.305E+00  0.301E+00
 -21.841  0.305E+00  0.302E+00
 -21.840  0.305E+00  0.302E+00
 -21.839  0.305E+00  0.301E+00
 -21.838  0.304E+00  0.301E+00
 -21.837  0.304E+00  0.300E+00
 -21.836  0.304E+00  0.300E+00
 -21.835  0.303E+00  0.300E+00
 -21.834  0.303E+00  0.300E+00
 -21.833  0.303E+00  0.300E+00
 -21.832  0.303E+00  0.300E+00
 -21.831  0.303E+00  0.300E+00
 -21.830  0.303E+00  0.300E+00
 -21.829  0.303E+00  0.300E+00
 -21.828  0.303E+00  0.300E+00
 -21.827  0.303E+00  0.300E+00
 -21.826  0.303E+00  0.300E+00
 -21.825  0.303E+00  0.300E+00
 -21.824  0.303E+00  0.300E+00
 -21.823  0.303E+00  0.300E+00
 -21.822  0.303E+00  0.300E+00
 -21.821  0.303E+00  0.300E+00
 -21.820  0.303E+00  0.300E+00
 -21.819  0.303E+00  0.300E+00
 -21.818  0.303E+00  0.300E+00
 -21.817  0.303E+00  0.300E+00
 -21.816  0.303E+00  0.300E+00
 -21.815  0.303E+00  0.300E+00
 -21.814  0.303E+00  0.300E+00
 -21.813  0.303E+00  0.300E+00
 -21.812  0.303E+00  0.300E+00
 -21.811  0.304E+00  0.300E+00
 -21.810  0.304E+00  0.300E+00
 -21.809  0.304E+00  0.300E+00
 -21.808  0.304E+00  0.301E+00
 -21.807  0.304E+00  0.301E+00
 -21.806  0.304E+00  0.301E+00
 -21.805  0.304E+00  0.301E+00
 -21.804  0.304E+00  0.301E+00
 -21.803  0.304E+00  0.301E+00
 -21.802  0.304E+00  0.301E+00
 -21.801  0.304E+00  0.301E+00
 -21.800  0.304E+00  0.301E+00
 -21.799  0.305E+00  0.301E+00
 -21.798  0.305E+00  0.301E+00
 -21.797  0.305E+00  0.301E+00
 -21.796  0.305E+00  0.302E+00
 -21.795  0.305E+00  0.302E+00
 -21.794  0.305E+00  0.302E+00
 -21.793  0.304E+00  0.301E+00
 -21.792  0.304E+00  0.301E+00
 -21.791  0.304E+00  0.301E+00
 -21.790  0.304E+00  0.300E+00
 -21.789  0.304E+00  0.300E+00
 -21.788  0.304E+00  0.300E+00
 -21.787  0.303E+00  0.300E+00
 -21.786  0.303E+00  0.300E+00
 -21.785  0.303E+00  0.300E+00
 -21.784  0.303E+00  0.300E+00
 -21.783  0.303E+00  0.300E+00
 -21.782  0.303E+00  0.300E+00
 -21.781  0.303E+00  0.300E+00
 -21.780  0.303E+00  0.300E+00
 -21.779  0.303E+00  0.300E+00
 -21.778  0.303E+00  0.300E+00
 -21.777  0.303E+00  0.300E+00
 -21.776  0.303E+00  0.300E+00
 -21.775  0.303E+00  0.300E+00
 -21.774  0.303E+00  0.300E+00
 -21.773  0.303E+00  0.300E+00
 -21.772  0.303E+00  0.300E+00
 -21.771  0.303E+00  0.300E+00
 -21.770  0.303E+00  0.300E+00
 -21.769  0.304E+00  0.300E+00
 -21.768  0.304E+00  0.300E+00
 -21.767  0.304E+00  0.300E+00
 -21.766  0.304E+00  0.300E+00
 -21.765  0.304E+00  0.300E+00
 -21.764  0.304E+00  0.300E+00
 -21.763  0.304E+00  0.300E+00
 -21.762  0.304E+00  0.301E+00
 -21.761  0.304E+00  0.301E+00
 -21.760  0.304E+00  0.301E+00
 -21.759  0.304E+00  0.301E+00
 -21.758  0.304E+00  0.301E+00
 -21.757  0.304E+00  0.301E+00
 -21.756  0.304E+00  0.301E+00
 -21.755  0.304E+00  0.301E+00
 -21.754  0.304E+00  0.301E+00
 -21.753  0.305E+00  0.301E+00
 -21.752  0.305E+00  0.301E+00
 -21.751  0.305E+00  0.301E+00
 -21.750  0.305E+00  0.301E+00
 -21.749  0.305E+00  0.302E+00
 -21.748  0.305E+00  0.302E+00
 -21.747  0.305E+00  0.302E+00
 -21.746  0.305E+00  0.302E+00
 -21.745  0.305E+00  0.302E+00
 -21.744  0.305E+00  0.301E+00
 -21.743  0.304E+00  0.301E+00
 -21.742  0.304E+00  0.301E+00
 -21.741  0.304E+00  0.301E+00
 -21.740  0.304E+00  0.300E+00
 -21.739  0.304E+00  0.300E+00
 -21.738  0.304E+00  0.300E+00
 -21.737  0.304E+00  0.300E+00
 -21.736  0.304E+00  0.300E+00
 -21.735  0.304E+00  0.300E+00
 -21.734  0.304E+00  0.300E+00
 -21.733  0.304E+00  0.300E+00
 -21.732  0.303E+00  0.300E+00
 -21.731  0.303E+00  0.300E+00
 -21.730  0.303E+00  0.300E+00
 -21.729  0.303E+00  0.300E+00
 -21.728  0.303E+00  0.300E+00
 -21.727  0.304E+00  0.300E+00
 -21.726  0.304E+00  0.300E+00
 -21.725  0.304E+00  0.300E+00
 -21.724  0.304E+00  0.300E+00
 -21.723  0.304E+00  0.300E+00
 -21.722  0.304E+00  0.300E+00
 -21.721  0.304E+00  0.300E+00
 -21.720  0.304E+00  0.300E+00
 -21.719  0.304E+00  0.300E+00
 -21.718  0.304E+00  0.300E+00
 -21.717  0.304E+00  0.300E+00
 -21.716  0.304E+00  0.301E+00
 -21.715  0.304E+00  0.301E+00
 -21.714  0.304E+00  0.301E+00
 -21.713  0.304E+00  0.301E+00
 -21.712  0.304E+00  0.301E+00
 -21.711  0.304E+00  0.301E+00
 -21.710  0.304E+00  0.301E+00
 -21.709  0.304E+00  0.301E+00
 -21.708  0.304E+00  0.301E+00
 -21.707  0.304E+00  0.301E+00
 -21.706  0.304E+00  0.301E+00
 -21.705  0.304E+00  0.301E+00
 -21.704  0.305E+00  0.301E+00
 -21.703  0.305E+00  0.301E+00
 -21.702  0.305E+00  0.301E+00
 -21.701  0.305E+00  0.301E+00
 -21.700  0.305E+00  0.301E+00
 -21.699  0.305E+00  0.302E+00
 -21.698  0.305E+00  0.302E+00
 -21.697  0.305E+00  0.302E+00
 -21.696  0.305E+00  0.302E+00
 -21.695  0.305E+00  0.302E+00
 -21.694  0.305E+00  0.302E+00
 -21.693  0.305E+00  0.301E+00
 -21.692  0.305E+00  0.301E+00
 -21.691  0.304E+00  0.301E+00
 -21.690  0.304E+00  0.301E+00
 -21.689  0.304E+00  0.301E+00
 -21.688  0.304E+00  0.301E+00
 -21.687  0.304E+00  0.301E+00
 -21.686  0.304E+00  0.301E+00
 -21.685  0.304E+00  0.300E+00
 -21.684  0.304E+00  0.300E+00
 -21.683  0.304E+00  0.300E+00
 -21.682  0.304E+00  0.300E+00
 -21.681  0.304E+00  0.300E+00
 -21.680  0.304E+00  0.300E+00
 -21.679  0.304E+00  0.300E+00
 -21.678  0.304E+00  0.300E+00
 -21.677  0.304E+00  0.300E+00
 -21.676  0.304E+00  0.300E+00
 -21.675  0.304E+00  0.300E+00
 -21.674  0.304E+00  0.300E+00
 -21.673  0.304E+00  0.300E+00
 -21.672  0.304E+00  0.300E+00
 -21.671  0.304E+00  0.300E+00
 -21.670  0.304E+00  0.300E+00
 -21.669  0.304E+00  0.301E+00
 -21.668  0.304E+00  0.301E+00
 -21.667  0.304E+00  0.301E+00
 -21.666  0.304E+00  0.301E+00
 -21.665  0.304E+00  0.301E+00
 -21.664  0.304E+00  0.301E+00
 -21.663  0.304E+00  0.301E+00
 -21.662  0.304E+00  0.301E+00
 -21.661  0.304E+00  0.301E+00
 -21.660  0.304E+00  0.301E+00
 -21.659  0.304E+00  0.301E+00
 -21.658  0.304E+00  0.301E+00
 -21.657  0.304E+00  0.301E+00
 -21.656  0.305E+00  0.301E+00
 -21.655  0.305E+00  0.301E+00
 -21.654  0.305E+00  0.301E+00
 -21.653  0.305E+00  0.301E+00
 -21.652  0.305E+00  0.301E+00
 -21.651  0.305E+00  0.301E+00
 -21.650  0.305E+00  0.301E+00
 -21.649  0.305E+00  0.301E+00
 -21.648  0.305E+00  0.302E+00
 -21.647  0.305E+00  0.302E+00
 -21.646  0.305E+00  0.302E+00
 -21.645  0.305E+00  0.302E+00
 -21.644  0.305E+00  0.302E+00
 -21.643  0.305E+00  0.302E+00
 -21.642  0.305E+00  0.302E+00
 -21.641  0.305E+00  0.302E+00
 -21.640  0.305E+00  0.302E+00
 -21.639  0.305E+00  0.301E+00
 -21.638  0.305E+00  0.301E+00
 -21.637  0.304E+00  0.301E+00
 -21.636  0.304E+00  0.301E+00
 -21.635  0.304E+00  0.301E+00
 -21.634  0.304E+00  0.301E+00
 -21.633  0.304E+00  0.301E+00
 -21.632  0.304E+00  0.301E+00
 -21.631  0.304E+00  0.301E+00
 -21.630  0.304E+00  0.301E+00
 -21.629  0.304E+00  0.301E+00
 -21.628  0.304E+00  0.301E+00
 -21.627  0.304E+00  0.301E+00
 -21.626  0.304E+00  0.301E+00
 -21.625  0.304E+00  0.301E+00
 -21.624  0.304E+00  0.301E+00
 -21.623  0.304E+00  0.301E+00
 -21.622  0.304E+00  0.301E+00
 -21.621  0.304E+00  0.301E+00
 -21.620  0.304E+00  0.301E+00
 -21.619  0.304E+00  0.301E+00
 -21.618  0.304E+00  0.301E+00
 -21.617  0.304E+00  0.301E+00
 -21.616  0.304E+00  0.301E+00
 -21.615  0.304E+00  0.301E+00
 -21.614  0.304E+00  0.301E+00
 -21.613  0.304E+00  0.301E+00
 -21.612  0.304E+00  0.301E+00
 -21.611  0.304E+00  0.301E+00
 -21.610  0.304E+00  0.301E+00
 -21.609  0.304E+00  0.301E+00
 -21.608  0.304E+00  0.301E+00
 -21.607  0.304E+00  0.301E+00
 -21.606  0.304E+00  0.301E+00
 -21.605  0.305E+00  0.301E+00
 -21.604  0.305E+00  0.301E+00
 -21.603  0.305E+00  0.301E+00
 -21.602  0.305E+00  0.301E+00
 -21.601  0.305E+00  0.301E+00
 -21.600  0.305E+00  0.301E+00
 -21.599  0.305E+00  0.301E+00
 -21.598  0.305E+00  0.301E+00
 -21.597  0.305E+00  0.301E+00
 -21.596  0.305E+00  0.302E+00
 -21.595  0.305E+00  0.302E+00
 -21.594  0.305E+00  0.302E+00
 -21.593  0.305E+00  0.302E+00
 -21.592  0.305E+00  0.302E+00
 -21.591  0.305E+00  0.302E+00
 -21.590  0.305E+00  0.302E+00
 -21.589  0.305E+00  0.302E+00
 -21.588  0.305E+00  0.302E+00
 -21.587  0.306E+00  0.302E+00
 -21.586  0.306E+00  0.302E+00
 -21.585  0.306E+00  0.302E+00
 -21.584  0.305E+00  0.302E+00
 -21.583  0.305E+00  0.302E+00
 -21.582  0.305E+00  0.301E+00
 -21.581  0.305E+00  0.301E+00
 -21.580  0.305E+00  0.301E+00
 -21.579  0.305E+00  0.301E+00
 -21.578  0.305E+00  0.301E+00
 -21.577  0.304E+00  0.301E+00
 -21.576  0.304E+00  0.301E+00
 -21.575  0.304E+00  0.301E+00
 -21.574  0.304E+00  0.301E+00
 -21.573  0.304E+00  0.301E+00
 -21.572  0.304E+00  0.301E+00
 -21.571  0.304E+00  0.301E+00
 -21.570  0.304E+00  0.301E+00
 -21.569  0.304E+00  0.301E+00
 -21.568  0.304E+00  0.301E+00
 -21.567  0.304E+00  0.301E+00
 -21.566  0.304E+00  0.301E+00
 -21.565  0.304E+00  0.301E+00
 -21.564  0.304E+00  0.301E+00
 -21.563  0.304E+00  0.301E+00
 -21.562  0.304E+00  0.301E+00
 -21.561  0.304E+00  0.301E+00
 -21.560  0.304E+00  0.301E+00
 -21.559  0.304E+00  0.301E+00
 -21.558  0.304E+00  0.301E+00
 -21.557  0.304E+00  0.301E+00
 -21.556  0.305E+00  0.301E+00
 -21.555  0.305E+00  0.301E+00
 -21.554  0.305E+00  0.301E+00
 -21.553  0.305E+00  0.301E+00
 -21.552  0.305E+00  0.301E+00
 -21.551  0.305E+00  0.301E+00
 -21.550  0.305E+00  0.301E+00
 -21.549  0.305E+00  0.301E+00
 -21.548  0.305E+00  0.301E+00
 -21.547  0.305E+00  0.301E+00
 -21.546  0.305E+00  0.301E+00
 -21.545  0.305E+00  0.301E+00
 -21.544  0.305E+00  0.301E+00
 -21.543  0.305E+00  0.301E+00
 -21.542  0.305E+00  0.302E+00
 -21.541  0.305E+00  0.302E+00
 -21.540  0.305E+00  0.302E+00
 -21.539  0.305E+00  0.302E+00
 -21.538  0.305E+00  0.302E+00
 -21.537  0.305E+00  0.302E+00
 -21.536  0.305E+00  0.302E+00
 -21.535  0.305E+00  0.302E+00
 -21.534  0.305E+00  0.302E+00
 -21.533  0.305E+00  0.302E+00
 -21.532  0.306E+00  0.302E+00
 -21.531  0.306E+00  0.302E+00
 -21.530  0.306E+00  0.302E+00
 -21.529  0.306E+00  0.302E+00
 -21.528  0.306E+00  0.302E+00
 -21.527  0.306E+00  0.302E+00
 -21.526  0.306E+00  0.302E+00
 -21.525  0.305E+00  0.302E+00
 -21.524  0.305E+00  0.302E+00
 -21.523  0.305E+00  0.302E+00
 -21.522  0.305E+00  0.301E+00
 -21.521  0.305E+00  0.301E+00
 -21.520  0.305E+00  0.301E+00
 -21.519  0.305E+00  0.301E+00
 -21.518  0.305E+00  0.301E+00
 -21.517  0.305E+00  0.301E+00
 -21.516  0.305E+00  0.301E+00
 -21.515  0.305E+00  0.301E+00
 -21.514  0.305E+00  0.301E+00
 -21.513  0.305E+00  0.301E+00
 -21.512  0.305E+00  0.301E+00
 -21.511  0.305E+00  0.301E+00
 -21.510  0.305E+00  0.301E+00
 -21.509  0.305E+00  0.301E+00
 -21.508  0.305E+00  0.301E+00
 -21.507  0.305E+00  0.301E+00
 -21.506  0.305E+00  0.301E+00
 -21.505  0.305E+00  0.301E+00
 -21.504  0.305E+00  0.301E+00
 -21.503  0.305E+00  0.301E+00
 -21.502  0.305E+00  0.301E+00
 -21.501  0.305E+00  0.301E+00
 -21.500  0.305E+00  0.301E+00
 -21.499  0.305E+00  0.301E+00
 -21.498  0.305E+00  0.301E+00
 -21.497  0.305E+00  0.301E+00
 -21.496  0.305E+00  0.301E+00
 -21.495  0.305E+00  0.301E+00
 -21.494  0.305E+00  0.301E+00
 -21.493  0.305E+00  0.301E+00
 -21.492  0.305E+00  0.301E+00
 -21.491  0.305E+00  0.301E+00
 -21.490  0.305E+00  0.301E+00
 -21.489  0.305E+00  0.301E+00
 -21.488  0.305E+00  0.302E+00
 -21.487  0.305E+00  0.302E+00
 -21.486  0.305E+00  0.302E+00
 -21.485  0.305E+00  0.302E+00
 -21.484  0.305E+00  0.302E+00
 -21.483  0.305E+00  0.302E+00
 -21.482  0.305E+00  0.302E+00
 -21.481  0.305E+00  0.302E+00
 -21.480  0.305E+00  0.302E+00
 -21.479  0.305E+00  0.302E+00
 -21.478  0.305E+00  0.302E+00
 -21.477  0.306E+00  0.302E+00
 -21.476  0.306E+00  0.302E+00
 -21.475  0.306E+00  0.302E+00
 -21.474  0.306E+00  0.302E+00
 -21.473  0.306E+00  0.302E+00
 -21.472  0.306E+00  0.302E+00
 -21.471  0.306E+00  0.302E+00
 -21.470  0.306E+00  0.302E+00
 -21.469  0.306E+00  0.302E+00
 -21.468  0.306E+00  0.302E+00
 -21.467  0.306E+00  0.302E+00
 -21.466  0.306E+00  0.302E+00
 -21.465  0.306E+00  0.302E+00
 -21.464  0.306E+00  0.302E+00
 -21.463  0.305E+00  0.302E+00
 -21.462  0.305E+00  0.302E+00
 -21.461  0.305E+00  0.302E+00
 -21.460  0.305E+00  0.302E+00
 -21.459  0.305E+00  0.302E+00
 -21.458  0.305E+00  0.302E+00
 -21.457  0.305E+00  0.301E+00
 -21.456  0.305E+00  0.301E+00
 -21.455  0.305E+00  0.301E+00
 -21.454  0.305E+00  0.301E+00
 -21.453  0.305E+00  0.301E+00
 -21.452  0.305E+00  0.301E+00
 -21.451  0.305E+00  0.301E+00
 -21.450  0.305E+00  0.301E+00
 -21.449  0.305E+00  0.301E+00
 -21.448  0.305E+00  0.301E+00
 -21.447  0.305E+00  0.301E+00
 -21.446  0.305E+00  0.301E+00
 -21.445  0.305E+00  0.301E+00
 -21.444  0.305E+00  0.301E+00
 -21.443  0.305E+00  0.301E+00
 -21.442  0.305E+00  0.301E+00
 -21.441  0.305E+00  0.301E+00
 -21.440  0.305E+00  0.301E+00
 -21.439  0.305E+00  0.301E+00
 -21.438  0.305E+00  0.301E+00
 -21.437  0.305E+00  0.301E+00
 -21.436  0.305E+00  0.301E+00
 -21.435  0.305E+00  0.302E+00
 -21.434  0.305E+00  0.302E+00
 -21.433  0.305E+00  0.302E+00
 -21.432  0.305E+00  0.302E+00
 -21.431  0.305E+00  0.302E+00
 -21.430  0.305E+00  0.302E+00
 -21.429  0.305E+00  0.302E+00
 -21.428  0.305E+00  0.302E+00
 -21.427  0.305E+00  0.302E+00
 -21.426  0.305E+00  0.302E+00
 -21.425  0.305E+00  0.302E+00
 -21.424  0.305E+00  0.302E+00
 -21.423  0.305E+00  0.302E+00
 -21.422  0.305E+00  0.302E+00
 -21.421  0.306E+00  0.302E+00
 -21.420  0.306E+00  0.302E+00
 -21.419  0.306E+00  0.302E+00
 -21.418  0.306E+00  0.302E+00
 -21.417  0.306E+00  0.302E+00
 -21.416  0.306E+00  0.302E+00
 -21.415  0.306E+00  0.302E+00
 -21.414  0.306E+00  0.302E+00
 -21.413  0.306E+00  0.302E+00
 -21.412  0.306E+00  0.302E+00
 -21.411  0.306E+00  0.302E+00
 -21.410  0.306E+00  0.302E+00
 -21.409  0.306E+00  0.302E+00
 -21.408  0.306E+00  0.302E+00
 -21.407  0.306E+00  0.303E+00
 -21.406  0.306E+00  0.303E+00
 -21.405  0.306E+00  0.303E+00
 -21.404  0.306E+00  0.303E+00
 -21.403  0.306E+00  0.303E+00
 -21.402  0.306E+00  0.302E+00
 -21.401  0.306E+00  0.302E+00
 -21.400  0.306E+00  0.302E+00
 -21.399  0.306E+00  0.302E+00
 -21.398  0.306E+00  0.302E+00
 -21.397  0.305E+00  0.302E+00
 -21.396  0.305E+00  0.302E+00
 -21.395  0.305E+00  0.302E+00
 -21.394  0.305E+00  0.302E+00
 -21.393  0.305E+00  0.302E+00
 -21.392  0.305E+00  0.302E+00
 -21.391  0.305E+00  0.302E+00
 -21.390  0.305E+00  0.302E+00
 -21.389  0.305E+00  0.302E+00
 -21.388  0.305E+00  0.302E+00
 -21.387  0.305E+00  0.302E+00
 -21.386  0.305E+00  0.302E+00
 -21.385  0.305E+00  0.302E+00
 -21.384  0.305E+00  0.302E+00
 -21.383  0.305E+00  0.302E+00
 -21.382  0.305E+00  0.302E+00
 -21.381  0.305E+00  0.302E+00
 -21.380  0.305E+00  0.302E+00
 -21.379  0.305E+00  0.302E+00
 -21.378  0.305E+00  0.302E+00
 -21.377  0.305E+00  0.302E+00
 -21.376  0.305E+00  0.302E+00
 -21.375  0.305E+00  0.302E+00
 -21.374  0.305E+00  0.302E+00
 -21.373  0.305E+00  0.302E+00
 -21.372  0.305E+00  0.302E+00
 -21.371  0.305E+00  0.302E+00
 -21.370  0.305E+00  0.302E+00
 -21.369  0.305E+00  0.302E+00
 -21.368  0.305E+00  0.302E+00
 -21.367  0.305E+00  0.302E+00
 -21.366  0.306E+00  0.302E+00
 -21.365  0.306E+00  0.302E+00
 -21.364  0.306E+00  0.302E+00
 -21.363  0.306E+00  0.302E+00
 -21.362  0.306E+00  0.302E+00
 -21.361  0.306E+00  0.302E+00
 -21.360  0.306E+00  0.302E+00
 -21.359  0.306E+00  0.302E+00
 -21.358  0.306E+00  0.302E+00
 -21.357  0.306E+00  0.302E+00
 -21.356  0.306E+00  0.302E+00
 -21.355  0.306E+00  0.302E+00
 -21.354  0.306E+00  0.302E+00
 -21.353  0.306E+00  0.302E+00
 -21.352  0.306E+00  0.302E+00
 -21.351  0.306E+00  0.302E+00
 -21.350  0.306E+00  0.302E+00
 -21.349  0.306E+00  0.302E+00
 -21.348  0.306E+00  0.302E+00
 -21.347  0.306E+00  0.303E+00
 -21.346  0.306E+00  0.303E+00
 -21.345  0.306E+00  0.303E+00
 -21.344  0.306E+00  0.303E+00
 -21.343  0.306E+00  0.303E+00
 -21.342  0.306E+00  0.303E+00
 -21.341  0.306E+00  0.303E+00
 -21.340  0.306E+00  0.303E+00
 -21.339  0.307E+00  0.303E+00
 -21.338  0.307E+00  0.303E+00
 -21.337  0.307E+00  0.303E+00
 -21.336  0.306E+00  0.303E+00
 -21.335  0.306E+00  0.302E+00
 -21.334  0.306E+00  0.302E+00
 -21.333  0.306E+00  0.302E+00
 -21.332  0.306E+00  0.302E+00
 -21.331  0.306E+00  0.302E+00
 -21.330  0.306E+00  0.302E+00
 -21.329  0.306E+00  0.302E+00
 -21.328  0.306E+00  0.302E+00
 -21.327  0.306E+00  0.302E+00
 -21.326  0.306E+00  0.302E+00
 -21.325  0.306E+00  0.302E+00
 -21.324  0.306E+00  0.302E+00
 -21.323  0.306E+00  0.302E+00
 -21.322  0.306E+00  0.302E+00
 -21.321  0.306E+00  0.302E+00
 -21.320  0.306E+00  0.302E+00
 -21.319  0.306E+00  0.302E+00
 -21.318  0.306E+00  0.302E+00
 -21.317  0.306E+00  0.302E+00
 -21.316  0.306E+00  0.302E+00
 -21.315  0.306E+00  0.302E+00
 -21.314  0.306E+00  0.302E+00
 -21.313  0.306E+00  0.302E+00
 -21.312  0.306E+00  0.302E+00
 -21.311  0.306E+00  0.302E+00
 -21.310  0.306E+00  0.302E+00
 -21.309  0.306E+00  0.302E+00
 -21.308  0.306E+00  0.302E+00
 -21.307  0.306E+00  0.302E+00
 -21.306  0.306E+00  0.302E+00
 -21.305  0.306E+00  0.302E+00
 -21.304  0.306E+00  0.302E+00
 -21.303  0.306E+00  0.302E+00
 -21.302  0.306E+00  0.302E+00
 -21.301  0.306E+00  0.302E+00
 -21.300  0.306E+00  0.302E+00
 -21.299  0.306E+00  0.302E+00
 -21.298  0.306E+00  0.302E+00
 -21.297  0.306E+00  0.302E+00
 -21.296  0.306E+00  0.302E+00
 -21.295  0.306E+00  0.302E+00
 -21.294  0.306E+00  0.302E+00
 -21.293  0.306E+00  0.302E+00
 -21.292  0.306E+00  0.302E+00
 -21.291  0.306E+00  0.302E+00
 -21.290  0.306E+00  0.302E+00
 -21.289  0.306E+00  0.302E+00
 -21.288  0.306E+00  0.302E+00
 -21.287  0.306E+00  0.303E+00
 -21.286  0.306E+00  0.303E+00
 -21.285  0.306E+00  0.303E+00
 -21.284  0.306E+00  0.303E+00
 -21.283  0.306E+00  0.303E+00
 -21.282  0.306E+00  0.303E+00
 -21.281  0.306E+00  0.303E+00
 -21.280  0.306E+00  0.303E+00
 -21.279  0.307E+00  0.303E+00