#E(eV)	dos(E)	pdos(E)
-22.244	0.000E+00	0.000E+00
-22.2430	2.690E-01	2.660E-01
-22.2420	2.550E-01	2.530E-01
-22.2410	2.800E-01	2.780E-01
-22.2400	3.050E-01	3.020E-01
-22.2390	3.300E-01	3.270E-01
-22.2380	3.050E-01	3.030E-01
-22.2370	2.830E-01	2.810E-01
-22.2360	2.910E-01	2.890E-01
-22.2350	3.010E-01	2.970E-01
-22.2340	3.090E-01	3.070E-01
-22.2330	3.170E-01	3.150E-01
-22.2320	3.000E-01	2.960E-01
-22.2310	2.980E-01	2.940E-01
-22.2300	2.960E-01	2.920E-01
-22.2290	2.940E-01	2.900E-01
-22.2280	2.970E-01	2.940E-01
-22.2270	3.010E-01	2.980E-01
-22.2260	3.060E-01	3.030E-01
-22.2250	3.100E-01	3.070E-01
-22.2240	3.150E-01	3.120E-01
-22.2230	3.050E-01	3.020E-01
-22.2220	2.960E-01	2.930E-01
-22.2210	2.960E-01	2.940E-01
-22.2200	2.980E-01	2.940E-01
-22.2190	2.980E-01	2.960E-01
-22.2180	2.980E-01	2.960E-01
-22.2170	3.000E-01	2.970E-01
-22.2160	3.020E-01	3.000E-01
-22.2150	3.060E-01	3.020E-01
-22.2140	3.080E-01	3.050E-01
-22.2130	3.100E-01	3.080E-01
-22.2120	3.040E-01	3.000E-01
-22.2110	3.020E-01	2.980E-01
-22.2100	2.990E-01	2.960E-01
-22.2090	2.970E-01	2.940E-01
-22.2080	2.980E-01	2.940E-01
-22.2070	2.980E-01	2.960E-01
-22.2060	3.000E-01	2.960E-01
-22.2050	3.000E-01	2.980E-01
-22.2040	3.020E-01	2.980E-01
-22.2030	3.020E-01	3.000E-01
-22.2020	3.040E-01	3.010E-01
-22.2010	3.060E-01	3.020E-01
-22.2000	3.080E-01	3.040E-01
-22.1990	3.100E-01	3.060E-01
-22.1980	3.050E-01	3.020E-01
-22.1970	3.000E-01	2.980E-01
-22.1960	3.000E-01	2.960E-01
-22.1950	3.000E-01	2.960E-01
-22.1940	3.000E-01	2.960E-01
-22.1930	2.980E-01	2.960E-01
-22.1920	2.980E-01	2.960E-01
-22.1910	3.000E-01	2.960E-01
-22.1900	3.000E-01	2.980E-01
-22.1890	3.020E-01	2.980E-01
-22.1880	3.020E-01	3.000E-01
-22.1870	3.040E-01	3.000E-01
-22.1860	3.040E-01	3.020E-01
-22.1850	3.060E-01	3.020E-01
-22.1840	3.060E-01	3.040E-01
-22.1830	3.080E-01	3.040E-01
-22.1820	3.040E-01	3.000E-01
-22.1810	3.020E-01	3.000E-01
-22.1800	3.010E-01	2.980E-01
-22.1790	3.000E-01	2.960E-01
-22.1780	3.000E-01	2.960E-01
-22.1770	3.000E-01	2.960E-01
-22.1760	3.000E-01	2.980E-01
-22.1750	3.000E-01	2.980E-01
-22.1740	3.000E-01	2.980E-01
-22.1730	3.000E-01	2.980E-01
-22.1720	3.000E-01	2.980E-01
-22.1710	3.020E-01	2.980E-01
-22.1700	3.020E-01	3.000E-01
-22.1690	3.040E-01	3.000E-01
-22.1680	3.040E-01	3.000E-01
-22.1670	3.040E-01	3.020E-01
-22.1660	3.060E-01	3.020E-01
-22.1650	3.060E-01	3.040E-01
-22.1640	3.070E-01	3.040E-01
-22.1630	3.040E-01	3.010E-01
-22.1620	3.020E-01	2.980E-01
-22.1610	3.020E-01	2.980E-01
-22.1600	3.000E-01	2.980E-01
-22.1590	3.000E-01	2.980E-01
-22.1580	3.000E-01	2.980E-01
-22.1570	3.000E-01	2.960E-01
-22.1560	3.000E-01	2.980E-01
-22.1550	3.000E-01	2.980E-01
-22.1540	3.000E-01	2.980E-01
-22.1530	3.020E-01	2.980E-01
-22.1520	3.020E-01	2.980E-01
-22.1510	3.020E-01	2.980E-01
-22.1500	3.020E-01	3.000E-01
-22.1490	3.020E-01	3.000E-01
-22.1480	3.030E-01	3.000E-01
-22.1470	3.040E-01	3.000E-01
-22.1460	3.040E-01	3.020E-01
-22.1450	3.050E-01	3.020E-01
-22.1440	3.060E-01	3.020E-01
-22.1430	3.060E-01	3.040E-01
-22.1420	3.040E-01	3.000E-01
-22.1410	3.020E-01	3.000E-01
-22.1400	3.020E-01	2.990E-01
-22.1390	3.010E-01	2.980E-01
-22.1380	3.000E-01	2.980E-01
-22.1370	3.000E-01	2.980E-01
-22.1360	3.000E-01	2.980E-01
-22.1350	3.000E-01	2.980E-01
-22.1340	3.000E-01	2.980E-01
-22.1330	3.000E-01	2.980E-01
-22.1320	3.000E-01	2.980E-01
-22.1310	3.020E-01	2.980E-01
-22.1300	3.020E-01	2.980E-01
-22.1290	3.020E-01	2.980E-01
-22.1280	3.020E-01	3.000E-01
-22.1270	3.020E-01	3.000E-01
-22.1260	3.020E-01	3.000E-01
-22.1250	3.040E-01	3.000E-01
-22.1240	3.040E-01	3.000E-01
-22.1230	3.040E-01	3.000E-01
-22.1220	3.040E-01	3.020E-01
-22.1210	3.040E-01	3.020E-01
-22.1200	3.060E-01	3.020E-01
-22.1190	3.060E-01	3.020E-01
-22.1180	3.040E-01	3.010E-01
-22.1170	3.020E-01	3.000E-01
-22.1160	3.020E-01	2.990E-01
-22.1150	3.020E-01	2.980E-01
-22.1140	3.020E-01	2.980E-01
-22.1130	3.020E-01	2.980E-01
-22.1120	3.000E-01	2.980E-01
-22.1110	3.000E-01	2.980E-01
-22.1100	3.000E-01	2.980E-01
-22.1090	3.020E-01	2.980E-01
-22.1080	3.020E-01	2.980E-01
-22.1070	3.020E-01	2.980E-01
-22.1060	3.020E-01	2.980E-01
-22.1050	3.020E-01	2.980E-01
-22.1040	3.020E-01	2.980E-01
-22.1030	3.020E-01	2.990E-01
-22.1020	3.020E-01	3.000E-01
-22.1010	3.020E-01	3.000E-01
-22.1000	3.030E-01	3.000E-01
-22.0990	3.040E-01	3.000E-01
-22.0980	3.040E-01	3.000E-01
-22.0970	3.040E-01	3.000E-01
-22.0960	3.040E-01	3.020E-01
-22.0950	3.040E-01	3.020E-01
-22.0940	3.050E-01	3.020E-01
-22.0930	3.060E-01	3.020E-01
-22.0920	3.040E-01	3.000E-01
-22.0910	3.030E-01	3.000E-01
-22.0900	3.020E-01	3.000E-01
-22.0890	3.020E-01	2.980E-01
-22.0880	3.020E-01	2.980E-01
-22.0870	3.020E-01	2.980E-01
-22.0860	3.020E-01	2.980E-01
-22.0850	3.020E-01	2.980E-01
-22.0840	3.020E-01	2.980E-01
-22.0830	3.020E-01	2.980E-01
-22.0820	3.020E-01	2.980E-01
-22.0810	3.020E-01	2.980E-01
-22.0800	3.020E-01	2.980E-01
-22.0790	3.020E-01	2.980E-01
-22.0780	3.020E-01	2.980E-01
-22.0770	3.020E-01	2.980E-01
-22.0760	3.020E-01	3.000E-01
-22.0750	3.020E-01	3.000E-01
-22.0740	3.020E-01	3.000E-01
-22.0730	3.020E-01	3.000E-01
-22.0720	3.020E-01	3.000E-01
-22.0710	3.040E-01	3.000E-01
-22.0700	3.040E-01	3.000E-01
-22.0690	3.040E-01	3.000E-01
-22.0680	3.040E-01	3.010E-01
-22.0670	3.040E-01	3.020E-01
-22.0660	3.040E-01	3.020E-01
-22.0650	3.050E-01	3.020E-01
-22.0640	3.060E-01	3.020E-01
-22.0630	3.040E-01	3.010E-01
-22.0620	3.020E-01	3.000E-01
-22.0610	3.020E-01	3.000E-01
-22.0600	3.020E-01	3.000E-01
-22.0590	3.020E-01	2.980E-01
-22.0580	3.020E-01	2.980E-01
-22.0570	3.020E-01	2.980E-01
-22.0560	3.020E-01	2.980E-01
-22.0550	3.020E-01	2.980E-01
-22.0540	3.020E-01	2.980E-01
-22.0530	3.020E-01	2.980E-01
-22.0520	3.020E-01	2.980E-01
-22.0510	3.020E-01	2.980E-01
-22.0500	3.020E-01	2.980E-01
-22.0490	3.020E-01	2.980E-01
-22.0480	3.020E-01	2.980E-01
-22.0470	3.020E-01	3.000E-01
-22.0460	3.020E-01	3.000E-01
-22.0450	3.020E-01	3.000E-01
-22.0440	3.020E-01	3.000E-01
-22.0430	3.020E-01	3.000E-01
-22.0420	3.020E-01	3.000E-01
-22.0410	3.040E-01	3.000E-01
-22.0400	3.040E-01	3.000E-01
-22.0390	3.040E-01	3.000E-01
-22.0380	3.040E-01	3.000E-01
-22.0370	3.040E-01	3.000E-01
-22.0360	3.040E-01	3.020E-01
-22.0350	3.040E-01	3.020E-01
-22.0340	3.040E-01	3.020E-01
-22.0330	3.060E-01	3.020E-01
-22.0320	3.040E-01	3.000E-01
-22.0310	3.040E-01	3.000E-01
-22.0300	3.020E-01	3.000E-01
-22.0290	3.020E-01	3.000E-01
-22.0280	3.020E-01	3.000E-01
-22.0270	3.020E-01	2.980E-01
-22.0260	3.020E-01	2.980E-01
-22.0250	3.020E-01	2.980E-01
-22.0240	3.020E-01	2.980E-01
-22.0230	3.020E-01	2.980E-01
-22.0220	3.020E-01	2.980E-01
-22.0210	3.020E-01	2.980E-01
-22.0200	3.020E-01	2.980E-01
-22.0190	3.020E-01	2.980E-01
-22.0180	3.020E-01	2.980E-01
-22.0170	3.020E-01	2.990E-01
-22.0160	3.020E-01	3.000E-01
-22.0150	3.020E-01	3.000E-01
-22.0140	3.020E-01	3.000E-01
-22.0130	3.020E-01	3.000E-01
-22.0120	3.020E-01	3.000E-01
-22.0110	3.020E-01	3.000E-01
-22.0100	3.020E-01	3.000E-01
-22.0090	3.040E-01	3.000E-01
-22.0080	3.040E-01	3.000E-01
-22.0070	3.040E-01	3.000E-01
-22.0060	3.040E-01	3.000E-01
-22.0050	3.040E-01	3.000E-01
-22.0040	3.040E-01	3.000E-01
-22.0030	3.040E-01	3.020E-01
-22.0020	3.040E-01	3.020E-01
-22.0010	3.040E-01	3.020E-01
-22.0000	3.040E-01	3.020E-01
-21.9990	3.040E-01	3.020E-01
-21.9980	3.040E-01	3.000E-01
-21.9970	3.040E-01	3.000E-01
-21.9960	3.020E-01	3.000E-01
-21.9950	3.020E-01	3.000E-01
-21.9940	3.020E-01	3.000E-01
-21.9930	3.020E-01	3.000E-01
-21.9920	3.020E-01	2.980E-01
-21.9910	3.020E-01	2.980E-01
-21.9900	3.020E-01	2.980E-01
-21.9890	3.020E-01	2.980E-01
-21.9880	3.020E-01	2.980E-01
-21.9870	3.020E-01	2.980E-01
-21.9860	3.020E-01	2.980E-01
-21.9850	3.020E-01	2.980E-01
-21.9840	3.020E-01	2.980E-01
-21.9830	3.020E-01	2.990E-01
-21.9820	3.020E-01	3.000E-01
-21.9810	3.020E-01	3.000E-01
-21.9800	3.020E-01	3.000E-01
-21.9790	3.020E-01	3.000E-01
-21.9780	3.020E-01	3.000E-01
-21.9770	3.020E-01	3.000E-01
-21.9760	3.020E-01	3.000E-01
-21.9750	3.040E-01	3.000E-01
-21.9740	3.040E-01	3.000E-01
-21.9730	3.040E-01	3.000E-01
-21.9720	3.040E-01	3.000E-01
-21.9710	3.040E-01	3.000E-01
-21.9700	3.040E-01	3.000E-01
-21.9690	3.040E-01	3.000E-01
-21.9680	3.040E-01	3.000E-01
-21.9670	3.040E-01	3.020E-01
-21.9660	3.040E-01	3.020E-01
-21.9650	3.040E-01	3.020E-01
-21.9640	3.040E-01	3.020E-01
-21.9630	3.040E-01	3.020E-01
-21.9620	3.040E-01	3.000E-01
-21.9610	3.040E-01	3.000E-01
-21.9600	3.040E-01	3.000E-01
-21.9590	3.020E-01	3.000E-01
-21.9580	3.020E-01	3.000E-01
-21.9570	3.020E-01	3.000E-01
-21.9560	3.020E-01	3.000E-01
-21.9550	3.020E-01	3.000E-01
-21.9540	3.020E-01	3.000E-01
-21.9530	3.020E-01	3.000E-01
-21.9520	3.020E-01	3.000E-01
-21.9510	3.020E-01	3.000E-01
-21.9500	3.020E-01	3.000E-01
-21.9490	3.020E-01	3.000E-01
-21.9480	3.020E-01	3.000E-01
-21.9470	3.020E-01	3.000E-01
-21.9460	3.020E-01	3.000E-01
-21.9450	3.020E-01	3.000E-01
-21.9440	3.020E-01	3.000E-01
-21.9430	3.020E-01	3.000E-01
-21.9420	3.020E-01	3.000E-01
-21.9410	3.020E-01	3.000E-01
-21.9400	3.020E-01	3.000E-01
-21.9390	3.020E-01	3.000E-01
-21.9380	3.040E-01	3.000E-01
-21.9370	3.040E-01	3.000E-01
-21.9360	3.040E-01	3.000E-01
-21.9350	3.040E-01	3.000E-01
-21.9340	3.040E-01	3.000E-01
-21.9330	3.040E-01	3.000E-01
-21.9320	3.040E-01	3.000E-01
-21.9310	3.040E-01	3.000E-01
-21.9300	3.040E-01	3.000E-01
-21.9290	3.040E-01	3.000E-01
-21.9280	3.040E-01	3.020E-01
-21.9270	3.040E-01	3.020E-01
-21.9260	3.040E-01	3.020E-01
-21.9250	3.040E-01	3.020E-01
-21.9240	3.040E-01	3.020E-01
-21.9230	3.040E-01	3.000E-01
-21.9220	3.040E-01	3.000E-01
-21.9210	3.040E-01	3.000E-01
-21.9200	3.040E-01	3.000E-01
-21.9190	3.020E-01	3.000E-01
-21.9180	3.020E-01	3.000E-01
-21.9170	3.020E-01	3.000E-01
-21.9160	3.020E-01	3.000E-01
-21.9150	3.020E-01	3.000E-01
-21.9140	3.020E-01	3.000E-01
-21.9130	3.020E-01	3.000E-01
-21.9120	3.020E-01	3.000E-01
-21.9110	3.020E-01	3.000E-01
-21.9100	3.020E-01	3.000E-01
-21.9090	3.020E-01	3.000E-01
-21.9080	3.020E-01	3.000E-01
-21.9070	3.020E-01	3.000E-01
-21.9060	3.020E-01	3.000E-01
-21.9050	3.020E-01	3.000E-01
-21.9040	3.020E-01	3.000E-01
-21.9030	3.020E-01	3.000E-01
-21.9020	3.020E-01	3.000E-01
-21.9010	3.040E-01	3.000E-01
-21.9000	3.040E-01	3.000E-01
-21.8990	3.040E-01	3.000E-01
-21.8980	3.040E-01	3.000E-01
-21.8970	3.040E-01	3.000E-01
-21.8960	3.040E-01	3.000E-01
-21.8950	3.040E-01	3.000E-01
-21.8940	3.040E-01	3.000E-01
-21.8930	3.040E-01	3.000E-01
-21.8920	3.040E-01	3.000E-01
-21.8910	3.040E-01	3.000E-01
-21.8900	3.040E-01	3.000E-01
-21.8890	3.040E-01	3.000E-01
-21.8880	3.040E-01	3.020E-01
-21.8870	3.040E-01	3.020E-01
-21.8860	3.040E-01	3.020E-01
-21.8850	3.040E-01	3.020E-01
-21.8840	3.040E-01	3.020E-01
-21.8830	3.040E-01	3.020E-01
-21.8820	3.040E-01	3.000E-01
-21.8810	3.040E-01	3.000E-01
-21.8800	3.040E-01	3.000E-01
-21.8790	3.040E-01	3.000E-01
-21.8780	3.040E-01	3.000E-01
-21.8770	3.040E-01	3.000E-01
-21.8760	3.020E-01	3.000E-01
-21.8750	3.020E-01	3.000E-01
-21.8740	3.020E-01	3.000E-01
-21.8730	3.020E-01	3.000E-01
-21.8720	3.020E-01	3.000E-01
-21.8710	3.020E-01	3.000E-01
-21.8700	3.020E-01	3.000E-01
-21.8690	3.020E-01	3.000E-01
-21.8680	3.020E-01	3.000E-01
-21.8670	3.020E-01	3.000E-01
-21.8660	3.020E-01	3.000E-01
-21.8650	3.020E-01	3.000E-01
-21.8640	3.020E-01	3.000E-01
-21.8630	3.020E-01	3.000E-01
-21.8620	3.020E-01	3.000E-01
-21.8610	3.040E-01	3.000E-01
-21.8600	3.040E-01	3.000E-01
-21.8590	3.040E-01	3.000E-01
-21.8580	3.040E-01	3.000E-01
-21.8570	3.040E-01	3.000E-01
-21.8560	3.040E-01	3.000E-01
-21.8550	3.040E-01	3.000E-01
-21.8540	3.040E-01	3.000E-01
-21.8530	3.040E-01	3.000E-01
-21.8520	3.040E-01	3.000E-01
-21.8510	3.040E-01	3.000E-01
-21.8500	3.040E-01	3.000E-01
-21.8490	3.040E-01	3.000E-01
-21.8480	3.040E-01	3.000E-01
-21.8470	3.040E-01	3.000E-01
-21.8460	3.040E-01	3.010E-01
-21.8450	3.040E-01	3.020E-01
-21.8440	3.040E-01	3.020E-01
-21.8430	3.040E-01	3.020E-01
-21.8420	3.040E-01	3.020E-01
-21.8410	3.040E-01	3.020E-01
-21.8400	3.040E-01	3.020E-01
-21.8390	3.040E-01	3.020E-01
-21.8380	3.040E-01	3.000E-01
-21.8370	3.040E-01	3.000E-01
-21.8360	3.040E-01	3.000E-01
-21.8350	3.040E-01	3.000E-01
-21.8340	3.040E-01	3.000E-01
-21.8330	3.040E-01	3.000E-01
-21.8320	3.040E-01	3.000E-01
-21.8310	3.040E-01	3.000E-01
-21.8300	3.040E-01	3.000E-01
-21.8290	3.040E-01	3.000E-01
-21.8280	3.040E-01	3.000E-01
-21.8270	3.040E-01	3.000E-01
-21.8260	3.030E-01	3.000E-01
-21.8250	3.020E-01	3.000E-01
-21.8240	3.020E-01	3.000E-01
-21.8230	3.040E-01	3.000E-01
-21.8220	3.040E-01	3.000E-01
-21.8210	3.040E-01	3.000E-01
-21.8200	3.040E-01	3.000E-01
-21.8190	3.040E-01	3.000E-01
-21.8180	3.040E-01	3.000E-01
-21.8170	3.040E-01	3.000E-01
-21.8160	3.040E-01	3.000E-01
-21.8150	3.040E-01	3.000E-01
-21.8140	3.040E-01	3.000E-01
-21.8130	3.040E-01	3.000E-01
-21.8120	3.040E-01	3.000E-01
-21.8110	3.040E-01	3.000E-01
-21.8100	3.040E-01	3.000E-01
-21.8090	3.040E-01	3.000E-01
-21.8080	3.040E-01	3.000E-01
-21.8070	3.040E-01	3.000E-01
-21.8060	3.040E-01	3.000E-01
-21.8050	3.040E-01	3.000E-01
-21.8040	3.040E-01	3.000E-01
-21.8030	3.040E-01	3.000E-01
-21.8020	3.040E-01	3.000E-01
-21.8010	3.040E-01	3.020E-01
-21.8000	3.040E-01	3.020E-01
-21.7990	3.040E-01	3.020E-01
-21.7980	3.040E-01	3.020E-01
-21.7970	3.040E-01	3.020E-01
-21.7960	3.040E-01	3.020E-01
-21.7950	3.040E-01	3.020E-01
-21.7940	3.060E-01	3.020E-01
-21.7930	3.050E-01	3.020E-01
-21.7920	3.040E-01	3.000E-01
-21.7910	3.040E-01	3.000E-01
-21.7900	3.040E-01	3.000E-01
-21.7890	3.040E-01	3.000E-01
-21.7880	3.040E-01	3.000E-01
-21.7870	3.040E-01	3.000E-01
-21.7860	3.040E-01	3.000E-01
-21.7850	3.040E-01	3.000E-01
-21.7840	3.040E-01	3.000E-01
-21.7830	3.040E-01	3.000E-01
-21.7820	3.040E-01	3.000E-01
-21.7810	3.040E-01	3.000E-01
-21.7800	3.040E-01	3.000E-01
-21.7790	3.040E-01	3.000E-01
-21.7780	3.040E-01	3.000E-01
-21.7770	3.040E-01	3.000E-01
-21.7760	3.040E-01	3.000E-01
-21.7750	3.040E-01	3.000E-01
-21.7740	3.040E-01	3.000E-01
-21.7730	3.040E-01	3.000E-01
-21.7720	3.040E-01	3.000E-01
-21.7710	3.040E-01	3.000E-01
-21.7700	3.040E-01	3.000E-01
-21.7690	3.040E-01	3.000E-01
-21.7680	3.040E-01	3.000E-01
-21.7670	3.040E-01	3.000E-01
-21.7660	3.040E-01	3.000E-01
-21.7650	3.040E-01	3.000E-01
-21.7640	3.040E-01	3.000E-01
-21.7630	3.040E-01	3.000E-01
-21.7620	3.040E-01	3.000E-01
-21.7610	3.040E-01	3.000E-01
-21.7600	3.040E-01	3.000E-01
-21.7590	3.040E-01	3.000E-01
-21.7580	3.040E-01	3.000E-01
-21.7570	3.040E-01	3.000E-01
-21.7560	3.040E-01	3.000E-01
-21.7550	3.040E-01	3.020E-01
-21.7540	3.040E-01	3.020E-01
-21.7530	3.040E-01	3.020E-01
-21.7520	3.040E-01	3.020E-01
-21.7510	3.040E-01	3.020E-01
-21.7500	3.040E-01	3.020E-01
-21.7490	3.040E-01	3.020E-01
-21.7480	3.040E-01	3.020E-01
-21.7470	3.060E-01	3.020E-01
-21.7460	3.060E-01	3.020E-01
-21.7450	3.060E-01	3.020E-01
-21.7440	3.040E-01	3.020E-01
-21.7430	3.040E-01	3.000E-01
-21.7420	3.040E-01	3.000E-01
-21.7410	3.040E-01	3.000E-01
-21.7400	3.040E-01	3.000E-01
-21.7390	3.040E-01	3.000E-01
-21.7380	3.040E-01	3.000E-01
-21.7370	3.040E-01	3.000E-01
-21.7360	3.040E-01	3.000E-01
-21.7350	3.040E-01	3.000E-01
-21.7340	3.040E-01	3.000E-01
-21.7330	3.040E-01	3.000E-01
-21.7320	3.040E-01	3.000E-01
-21.7310	3.040E-01	3.000E-01
-21.7300	3.040E-01	3.000E-01
-21.7290	3.040E-01	3.000E-01
-21.7280	3.040E-01	3.000E-01
-21.7270	3.040E-01	3.000E-01
-21.7260	3.040E-01	3.000E-01
-21.7250	3.040E-01	3.000E-01
-21.7240	3.040E-01	3.000E-01
-21.7230	3.040E-01	3.000E-01
-21.7220	3.040E-01	3.000E-01
-21.7210	3.040E-01	3.000E-01
-21.7200	3.040E-01	3.000E-01
-21.7190	3.040E-01	3.000E-01
-21.7180	3.040E-01	3.000E-01
-21.7170	3.040E-01	3.000E-01
-21.7160	3.040E-01	3.000E-01
-21.7150	3.040E-01	3.000E-01
-21.7140	3.040E-01	3.000E-01
-21.7130	3.040E-01	3.000E-01
-21.7120	3.040E-01	3.000E-01
-21.7110	3.040E-01	3.000E-01
-21.7100	3.040E-01	3.000E-01
-21.7090	3.040E-01	3.000E-01
-21.7080	3.040E-01	3.000E-01
-21.7070	3.040E-01	3.010E-01
-21.7060	3.040E-01	3.020E-01
-21.7050	3.040E-01	3.020E-01
-21.7040	3.040E-01	3.020E-01
-21.7030	3.040E-01	3.020E-01
-21.7020	3.040E-01	3.020E-01
-21.7010	3.040E-01	3.020E-01
-21.7000	3.040E-01	3.020E-01
-21.6990	3.040E-01	3.020E-01
-21.6980	3.050E-01	3.020E-01
-21.6970	3.060E-01	3.020E-01
-21.6960	3.060E-01	3.020E-01
-21.6950	3.060E-01	3.020E-01
-21.6940	3.060E-01	3.020E-01
-21.6930	3.040E-01	3.020E-01
-21.6920	3.040E-01	3.020E-01
-21.6910	3.040E-01	3.000E-01
-21.6900	3.040E-01	3.000E-01
-21.6890	3.040E-01	3.000E-01
-21.6880	3.040E-01	3.000E-01
-21.6870	3.040E-01	3.000E-01
-21.6860	3.040E-01	3.000E-01
-21.6850	3.040E-01	3.000E-01
-21.6840	3.040E-01	3.000E-01
-21.6830	3.040E-01	3.000E-01
-21.6820	3.040E-01	3.000E-01
-21.6810	3.040E-01	3.000E-01
-21.6800	3.040E-01	3.000E-01
-21.6790	3.040E-01	3.000E-01
-21.6780	3.040E-01	3.000E-01
-21.6770	3.040E-01	3.000E-01
-21.6760	3.040E-01	3.000E-01
-21.6750	3.040E-01	3.000E-01
-21.6740	3.040E-01	3.000E-01
-21.6730	3.040E-01	3.000E-01
-21.6720	3.040E-01	3.000E-01
-21.6710	3.040E-01	3.000E-01
-21.6700	3.040E-01	3.000E-01
-21.6690	3.040E-01	3.000E-01
-21.6680	3.040E-01	3.000E-01
-21.6670	3.040E-01	3.000E-01
-21.6660	3.040E-01	3.000E-01
-21.6650	3.040E-01	3.000E-01
-21.6640	3.040E-01	3.000E-01
-21.6630	3.040E-01	3.000E-01
-21.6620	3.040E-01	3.000E-01
-21.6610	3.040E-01	3.000E-01
-21.6600	3.040E-01	3.000E-01
-21.6590	3.040E-01	3.000E-01
-21.6580	3.040E-01	3.000E-01
-21.6570	3.040E-01	3.020E-01
-21.6560	3.040E-01	3.020E-01
-21.6550	3.040E-01	3.020E-01
-21.6540	3.040E-01	3.020E-01
-21.6530	3.040E-01	3.020E-01
-21.6520	3.040E-01	3.020E-01
-21.6510	3.040E-01	3.020E-01
-21.6500	3.040E-01	3.020E-01
-21.6490	3.040E-01	3.020E-01
-21.6480	3.040E-01	3.020E-01
-21.6470	3.060E-01	3.020E-01
-21.6460	3.060E-01	3.020E-01
-21.6450	3.060E-01	3.020E-01
-21.6440	3.060E-01	3.020E-01
-21.6430	3.060E-01	3.020E-01
-21.6420	3.060E-01	3.020E-01
-21.6410	3.060E-01	3.020E-01
-21.6400	3.060E-01	3.020E-01
-21.6390	3.040E-01	3.020E-01
-21.6380	3.040E-01	3.020E-01
-21.6370	3.040E-01	3.020E-01
-21.6360	3.040E-01	3.000E-01
-21.6350	3.040E-01	3.000E-01
-21.6340	3.040E-01	3.000E-01
-21.6330	3.040E-01	3.000E-01
-21.6320	3.040E-01	3.000E-01
-21.6310	3.040E-01	3.000E-01
-21.6300	3.040E-01	3.000E-01
-21.6290	3.040E-01	3.000E-01
-21.6280	3.040E-01	3.000E-01
-21.6270	3.040E-01	3.000E-01
-21.6260	3.040E-01	3.000E-01
-21.6250	3.040E-01	3.000E-01
-21.6240	3.040E-01	3.000E-01
-21.6230	3.040E-01	3.000E-01
-21.6220	3.040E-01	3.000E-01
-21.6210	3.040E-01	3.000E-01
-21.6200	3.040E-01	3.000E-01
-21.6190	3.040E-01	3.000E-01
-21.6180	3.040E-01	3.000E-01
-21.6170	3.040E-01	3.000E-01
-21.6160	3.040E-01	3.000E-01
-21.6150	3.040E-01	3.000E-01
-21.6140	3.040E-01	3.000E-01
-21.6130	3.040E-01	3.000E-01
-21.6120	3.040E-01	3.000E-01
-21.6110	3.040E-01	3.000E-01
-21.6100	3.040E-01	3.000E-01
-21.6090	3.040E-01	3.000E-01
-21.6080	3.040E-01	3.000E-01
-21.6070	3.040E-01	3.010E-01
-21.6060	3.040E-01	3.020E-01
-21.6050	3.040E-01	3.020E-01
-21.6040	3.040E-01	3.020E-01
-21.6030	3.040E-01	3.020E-01
-21.6020	3.040E-01	3.020E-01
-21.6010	3.040E-01	3.020E-01
-21.6000	3.040E-01	3.020E-01
-21.5990	3.040E-01	3.020E-01
-21.5980	3.040E-01	3.020E-01
-21.5970	3.040E-01	3.020E-01
-21.5960	3.040E-01	3.020E-01
-21.5950	3.060E-01	3.020E-01
-21.5940	3.060E-01	3.020E-01
-21.5930	3.060E-01	3.020E-01
-21.5920	3.060E-01	3.020E-01
-21.5910	3.060E-01	3.020E-01
-21.5900	3.060E-01	3.020E-01
-21.5890	3.060E-01	3.020E-01
-21.5880	3.060E-01	3.020E-01
-21.5870	3.060E-01	3.020E-01
-21.5860	3.060E-01	3.020E-01
-21.5850	3.060E-01	3.020E-01
-21.5840	3.060E-01	3.020E-01
-21.5830	3.060E-01	3.020E-01
-21.5820	3.040E-01	3.020E-01
-21.5810	3.040E-01	3.020E-01
-21.5800	3.040E-01	3.020E-01
-21.5790	3.040E-01	3.020E-01
-21.5780	3.040E-01	3.020E-01
-21.5770	3.040E-01	3.000E-01
-21.5760	3.040E-01	3.000E-01
-21.5750	3.040E-01	3.000E-01
-21.5740	3.040E-01	3.000E-01
-21.5730	3.040E-01	3.000E-01
-21.5720	3.040E-01	3.000E-01
-21.5710	3.040E-01	3.000E-01
-21.5700	3.040E-01	3.000E-01
-21.5690	3.040E-01	3.000E-01
-21.5680	3.040E-01	3.000E-01
-21.5670	3.040E-01	3.000E-01
-21.5660	3.040E-01	3.000E-01
-21.5650	3.040E-01	3.000E-01
-21.5640	3.040E-01	3.000E-01
-21.5630	3.040E-01	3.000E-01
-21.5620	3.040E-01	3.000E-01
-21.5610	3.040E-01	3.000E-01
-21.5600	3.040E-01	3.000E-01
-21.5590	3.040E-01	3.000E-01
-21.5580	3.040E-01	3.000E-01
-21.5570	3.040E-01	3.020E-01
-21.5560	3.040E-01	3.020E-01
-21.5550	3.040E-01	3.020E-01
-21.5540	3.040E-01	3.020E-01
-21.5530	3.040E-01	3.020E-01
-21.5520	3.040E-01	3.020E-01
-21.5510	3.040E-01	3.020E-01
-21.5500	3.040E-01	3.020E-01
-21.5490	3.040E-01	3.020E-01
-21.5480	3.040E-01	3.020E-01
-21.5470	3.040E-01	3.020E-01
-21.5460	3.040E-01	3.020E-01
-21.5450	3.040E-01	3.020E-01
-21.5440	3.040E-01	3.020E-01
-21.5430	3.040E-01	3.020E-01
-21.5420	3.060E-01	3.020E-01
-21.5410	3.060E-01	3.020E-01
-21.5400	3.060E-01	3.020E-01
-21.5390	3.060E-01	3.020E-01
-21.5380	3.060E-01	3.020E-01
-21.5370	3.060E-01	3.020E-01
-21.5360	3.060E-01	3.020E-01
-21.5350	3.060E-01	3.020E-01
-21.5340	3.060E-01	3.020E-01
-21.5330	3.060E-01	3.020E-01
-21.5320	3.060E-01	3.020E-01
-21.5310	3.060E-01	3.020E-01
-21.5300	3.060E-01	3.020E-01
-21.5290	3.060E-01	3.020E-01
-21.5280	3.060E-01	3.020E-01
-21.5270	3.060E-01	3.020E-01
-21.5260	3.060E-01	3.020E-01
-21.5250	3.060E-01	3.020E-01
-21.5240	3.060E-01	3.020E-01
-21.5230	3.060E-01	3.020E-01
-21.5220	3.040E-01	3.020E-01
-21.5210	3.040E-01	3.020E-01
-21.5200	3.040E-01	3.020E-01
-21.5190	3.040E-01	3.020E-01
-21.5180	3.040E-01	3.020E-01
-21.5170	3.040E-01	3.020E-01
-21.5160	3.040E-01	3.020E-01
-21.5150	3.040E-01	3.020E-01
-21.5140	3.040E-01	3.020E-01
-21.5130	3.040E-01	3.020E-01
-21.5120	3.040E-01	3.020E-01
-21.5110	3.040E-01	3.020E-01
-21.5100	3.040E-01	3.020E-01
-21.5090	3.040E-01	3.020E-01
-21.5080	3.040E-01	3.020E-01
-21.5070	3.040E-01	3.020E-01
-21.5060	3.040E-01	3.020E-01
-21.5050	3.040E-01	3.020E-01
-21.5040	3.040E-01	3.020E-01
-21.5030	3.040E-01	3.020E-01
-21.5020	3.040E-01	3.020E-01
-21.5010	3.040E-01	3.020E-01
-21.5000	3.040E-01	3.020E-01
-21.4990	3.040E-01	3.020E-01
-21.4980	3.040E-01	3.020E-01
-21.4970	3.040E-01	3.020E-01
-21.4960	3.040E-01	3.020E-01
-21.4950	3.040E-01	3.020E-01
-21.4940	3.040E-01	3.020E-01
-21.4930	3.040E-01	3.020E-01
-21.4920	3.040E-01	3.020E-01
-21.4910	3.040E-01	3.020E-01
-21.4900	3.050E-01	3.020E-01
-21.4890	3.060E-01	3.020E-01
-21.4880	3.060E-01	3.020E-01
-21.4870	3.060E-01	3.020E-01
-21.4860	3.060E-01	3.020E-01
-21.4850	3.060E-01	3.020E-01
-21.4840	3.060E-01	3.020E-01
-21.4830	3.060E-01	3.020E-01
-21.4820	3.060E-01	3.020E-01
-21.4810	3.060E-01	3.020E-01
-21.4800	3.060E-01	3.020E-01
-21.4790	3.060E-01	3.020E-01
-21.4780	3.060E-01	3.020E-01
-21.4770	3.060E-01	3.020E-01
-21.4760	3.060E-01	3.020E-01
-21.4750	3.060E-01	3.020E-01
-21.4740	3.060E-01	3.020E-01
-21.4730	3.060E-01	3.020E-01
-21.4720	3.060E-01	3.020E-01
-21.4710	3.060E-01	3.020E-01
-21.4700	3.060E-01	3.020E-01
-21.4690	3.060E-01	3.020E-01
-21.4680	3.060E-01	3.020E-01
-21.4670	3.060E-01	3.020E-01
-21.4660	3.060E-01	3.020E-01
-21.4650	3.060E-01	3.020E-01
-21.4640	3.060E-01	3.020E-01
-21.4630	3.060E-01	3.020E-01
-21.4620	3.060E-01	3.020E-01
-21.4610	3.060E-01	3.020E-01
-21.4600	3.060E-01	3.020E-01
-21.4590	3.060E-01	3.020E-01
-21.4580	3.060E-01	3.020E-01
-21.4570	3.060E-01	3.020E-01
-21.4560	3.040E-01	3.020E-01
-21.4550	3.040E-01	3.020E-01
-21.4540	3.040E-01	3.020E-01
-21.4530	3.040E-01	3.020E-01
-21.4520	3.040E-01	3.020E-01
-21.4510	3.040E-01	3.020E-01
-21.4500	3.040E-01	3.020E-01
-21.4490	3.040E-01	3.020E-01
-21.4480	3.040E-01	3.020E-01
-21.4470	3.040E-01	3.020E-01
-21.4460	3.040E-01	3.020E-01
-21.4450	3.040E-01	3.020E-01
-21.4440	3.040E-01	3.020E-01
-21.4430	3.040E-01	3.020E-01
-21.4420	3.040E-01	3.020E-01
-21.4410	3.040E-01	3.020E-01
-21.4400	3.040E-01	3.020E-01
-21.4390	3.060E-01	3.020E-01
-21.4380	3.060E-01	3.020E-01
-21.4370	3.060E-01	3.020E-01
-21.4360	3.060E-01	3.020E-01
-21.4350	3.060E-01	3.020E-01
-21.4340	3.060E-01	3.020E-01
-21.4330	3.060E-01	3.020E-01
-21.4320	3.060E-01	3.020E-01
-21.4310	3.060E-01	3.020E-01
-21.4300	3.060E-01	3.020E-01
-21.4290	3.060E-01	3.020E-01
-21.4280	3.060E-01	3.020E-01
-21.4270	3.060E-01	3.020E-01
-21.4260	3.060E-01	3.020E-01
-21.4250	3.060E-01	3.020E-01
-21.4240	3.060E-01	3.020E-01
-21.4230	3.060E-01	3.020E-01
-21.4220	3.060E-01	3.020E-01
-21.4210	3.060E-01	3.020E-01
-21.4200	3.060E-01	3.020E-01
-21.4190	3.060E-01	3.020E-01
-21.4180	3.060E-01	3.020E-01
-21.4170	3.060E-01	3.020E-01
-21.4160	3.060E-01	3.020E-01
-21.4150	3.060E-01	3.020E-01
-21.4140	3.060E-01	3.020E-01
-21.4130	3.060E-01	3.020E-01
-21.4120	3.060E-01	3.020E-01
-21.4110	3.060E-01	3.020E-01
-21.4100	3.060E-01	3.020E-01
-21.4090	3.060E-01	3.020E-01
-21.4080	3.060E-01	3.020E-01
-21.4070	3.060E-01	3.020E-01
-21.4060	3.060E-01	3.020E-01
-21.4050	3.060E-01	3.020E-01
-21.4040	3.060E-01	3.020E-01
-21.4030	3.060E-01	3.020E-01
-21.4020	3.060E-01	3.020E-01
-21.4010	3.060E-01	3.020E-01
-21.4000	3.060E-01	3.020E-01
-21.3990	3.060E-01	3.020E-01
-21.3980	3.060E-01	3.020E-01
-21.3970	3.060E-01	3.020E-01
-21.3960	3.060E-01	3.020E-01
-21.3950	3.060E-01	3.020E-01
-21.3940	3.060E-01	3.020E-01
-21.3930	3.060E-01	3.020E-01
-21.3920	3.060E-01	3.020E-01
-21.3910	3.060E-01	3.020E-01
-21.3900	3.060E-01	3.020E-01
-21.3890	3.060E-01	3.020E-01
-21.3880	3.060E-01	3.020E-01
-21.3870	3.060E-01	3.020E-01
-21.3860	3.060E-01	3.020E-01
-21.3850	3.060E-01	3.020E-01
-21.3840	3.060E-01	3.020E-01
-21.3830	3.060E-01	3.020E-01
-21.3820	3.060E-01	3.020E-01
-21.3810	3.060E-01	3.020E-01
-21.3800	3.060E-01	3.020E-01
-21.3790	3.060E-01	3.020E-01
-21.3780	3.060E-01	3.020E-01
-21.3770	3.060E-01	3.020E-01
-21.3760	3.060E-01	3.020E-01
-21.3750	3.060E-01	3.020E-01
-21.3740	3.060E-01	3.020E-01
-21.3730	3.060E-01	3.020E-01
-21.3720	3.060E-01	3.020E-01
-21.3710	3.060E-01	3.020E-01
-21.3700	3.060E-01	3.020E-01
-21.3690	3.060E-01	3.020E-01
-21.3680	3.060E-01	3.020E-01
-21.3670	3.060E-01	3.020E-01
-21.3660	3.060E-01	3.020E-01
-21.3650	3.060E-01	3.020E-01
-21.3640	3.060E-01	3.020E-01
-21.3630	3.060E-01	3.020E-01
-21.3620	3.060E-01	3.020E-01
-21.3610	3.060E-01	3.020E-01
-21.3600	3.060E-01	3.020E-01
-21.3590	3.060E-01	3.020E-01
-21.3580	3.060E-01	3.020E-01
-21.3570	3.060E-01	3.020E-01
-21.3560	3.060E-01	3.020E-01
-21.3550	3.060E-01	3.020E-01
-21.3540	3.060E-01	3.020E-01
-21.3530	3.060E-01	3.020E-01
-21.3520	3.060E-01	3.020E-01
-21.3510	3.060E-01	3.020E-01
-21.3500	3.060E-01	3.020E-01
-21.3490	3.060E-01	3.020E-01
-21.3480	3.060E-01	3.020E-01
-21.3470	3.060E-01	3.020E-01
-21.3460	3.060E-01	3.020E-01
-21.3450	3.060E-01	3.020E-01
-21.3440	3.060E-01	3.020E-01
-21.3430	3.060E-01	3.020E-01
-21.3420	3.060E-01	3.020E-01
-21.3410	3.060E-01	3.020E-01
-21.3400	3.060E-01	3.020E-01
-21.3390	3.060E-01	3.020E-01
-21.3380	3.060E-01	3.020E-01
-21.3370	3.060E-01	3.020E-01
-21.3360	3.060E-01	3.020E-01
-21.3350	3.060E-01	3.020E-01
-21.3340	3.060E-01	3.020E-01
-21.3330	3.060E-01	3.020E-01
-21.3320	3.060E-01	3.020E-01
-21.3310	3.060E-01	3.020E-01
-21.3300	3.060E-01	3.020E-01
-21.3290	3.060E-01	3.020E-01
-21.3280	3.060E-01	3.020E-01
-21.3270	3.060E-01	3.020E-01
-21.3260	3.060E-01	3.020E-01
-21.3250	3.060E-01	3.020E-01
-21.3240	3.060E-01	3.020E-01
-21.3230	3.060E-01	3.020E-01
-21.3220	3.060E-01	3.020E-01
-21.3210	3.060E-01	3.020E-01
-21.3200	3.060E-01	3.020E-01
-21.3190	3.060E-01	3.020E-01
-21.3180	3.060E-01	3.020E-01
-21.3170	3.060E-01	3.020E-01
-21.3160	3.060E-01	3.020E-01
-21.3150	3.060E-01	3.020E-01
-21.3140	3.060E-01	3.020E-01
-21.3130	3.060E-01	3.020E-01
-21.3120	3.060E-01	3.020E-01
-21.3110	3.060E-01	3.020E-01
-21.3100	3.060E-01	3.020E-01
-21.3090	3.060E-01	3.020E-01
-21.3080	3.060E-01	3.020E-01
-21.3070	3.060E-01	3.020E-01
-21.3060	3.060E-01	3.020E-01
-21.3050	3.060E-01	3.020E-01
-21.3040	3.060E-01	3.020E-01
-21.3030	3.060E-01	3.020E-01
-21.3020	3.060E-01	3.020E-01
-21.3010	3.060E-01	3.020E-01
-21.3000	3.060E-01	3.020E-01
-21.2990	3.060E-01	3.020E-01
-21.2980	3.060E-01	3.020E-01
-21.2970	3.060E-01	3.020E-01
-21.2960	3.060E-01	3.020E-01
-21.2950	3.060E-01	3.020E-01
-21.2940	3.060E-01	3.020E-01
-21.2930	3.060E-01	3.020E-01
-21.2920	3.060E-01	3.020E-01
-21.2910	3.060E-01	3.020E-01
-21.2900	3.060E-01	3.020E-01
-21.2890	3.060E-01	3.020E-01
-21.2880	3.060E-01	3.020E-01
-21.2870	3.060E-01	3.020E-01
-21.2860	3.060E-01	3.020E-01
-21.2850	3.060E-01	3.020E-01
-21.2840	3.060E-01	3.020E-01
-21.2830	3.060E-01	3.020E-01
-21.2820	3.060E-01	3.020E-01
-21.2810	3.060E-01	3.020E-01
-21.2800	3.060E-01	3.020E-01
-21.2790	3.060E-01	3.020E-01
-21.2780	3.060E-01	3.020E-01
-21.2770	3.060E-01	3.020E-01
-21.2760	3.060E-01	3.020E-01
-21.2750	3.060E-01	3.020E-01
-21.2740	3.060E-01	3.030E-01
-21.2730	3.060E-01	3.040E-01
-21.2720	3.060E-01	3.040E-01
-21.2710	3.060E-01	3.040E-01
-21.2700	3.060E-01	3.040E-01
-21.2690	3.060E-01	3.040E-01
-21.2680	3.060E-01	3.020E-01
-21.2670	3.060E-01	3.020E-01
-21.2660	3.060E-01	3.020E-01
-21.2650	3.060E-01	3.020E-01
-21.2640	3.060E-01	3.020E-01
-21.2630	3.060E-01	3.020E-01
-21.2620	3.060E-01	3.020E-01
-21.2610	3.060E-01	3.020E-01
-21.2600	3.060E-01	3.020E-01
-21.2590	3.060E-01	3.020E-01
-21.2580	3.060E-01	3.020E-01
-21.2570	3.060E-01	3.020E-01
-21.2560	3.060E-01	3.020E-01
-21.2550	3.060E-01	3.020E-01
-21.2540	3.060E-01	3.020E-01
-21.2530	3.060E-01	3.020E-01
-21.2520	3.060E-01	3.020E-01
-21.2510	3.060E-01	3.020E-01
-21.2500	3.060E-01	3.020E-01
-21.2490	3.060E-01	3.020E-01
-21.2480	3.060E-01	3.020E-01
-21.2470	3.060E-01	3.020E-01
-21.2460	3.060E-01	3.020E-01
-21.2450	3.060E-01	3.020E-01
-21.2440	3.060E-01	3.020E-01
-21.2430	3.060E-01	3.020E-01
-21.2420	3.060E-01	3.020E-01
-21.2410	3.060E-01	3.020E-01
-21.2400	3.060E-01	3.020E-01
-21.2390	3.060E-01	3.020E-01
-21.2380	3.060E-01	3.020E-01
-21.2370	3.060E-01	3.020E-01
-21.2360	3.060E-01	3.020E-01
-21.2350	3.060E-01	3.020E-01
-21.2340	3.060E-01	3.020E-01
-21.2330	3.060E-01	3.020E-01
-21.2320	3.060E-01	3.020E-01
-21.2310	3.060E-01	3.020E-01
-21.2300	3.060E-01	3.020E-01
-21.2290	3.060E-01	3.020E-01
-21.2280	3.060E-01	3.020E-01
-21.2270	3.060E-01	3.020E-01
-21.2260	3.060E-01	3.020E-01
-21.2250	3.060E-01	3.020E-01
-21.2240	3.060E-01	3.020E-01
-21.2230	3.060E-01	3.020E-01
-21.2220	3.060E-01	3.020E-01
-21.2210	3.060E-01	3.020E-01
-21.2200	3.060E-01	3.020E-01
-21.2190	3.060E-01	3.020E-01
-21.2180	3.060E-01	3.020E-01
-21.2170	3.060E-01	3.020E-01
-21.2160	3.060E-01	3.020E-01
-21.2150	3.060E-01	3.020E-01
-21.2140	3.060E-01	3.020E-01
-21.2130	3.060E-01	3.020E-01
-21.2120	3.060E-01	3.020E-01