#E (eV)	dos(E)	pdos(E)
-21.546	2.682E-04	2.646E-04
-21.545	2.950E-04	2.900E-04
-21.544	3.240E-04	3.190E-04
-21.543	3.550E-04	3.500E-04
-21.542	3.900E-04	3.830E-04
-21.541	4.270E-04	4.200E-04
-21.540	4.670E-04	4.600E-04
-21.539	5.120E-04	5.040E-04
-21.538	5.600E-04	5.510E-04
-21.537	6.130E-04	6.040E-04
-21.536	6.700E-04	6.600E-04
-21.535	7.330E-04	7.220E-04
-21.534	8.010E-04	7.880E-04
-21.533	8.750E-04	8.610E-04
-21.532	9.550E-04	9.400E-04
-21.531	1.043E-03	1.026E-03
-21.530	1.138E-03	1.120E-03
-21.529	1.241E-03	1.221E-03
-21.528	1.353E-03	1.332E-03
-21.527	1.475E-03	1.451E-03
-21.526	1.607E-03	1.581E-03
-21.525	1.746E-03	1.725E-03
-21.524	1.906E-03	1.874E-03
-21.523	2.071E-03	2.038E-03
-21.522	2.251E-03	2.218E-03
-21.521	2.448E-03	2.413E-03
-21.520	2.660E-03	2.610E-03
-21.519	2.890E-03	2.840E-03
-21.518	3.140E-03	3.090E-03
-21.517	3.400E-03	3.350E-03
-21.516	3.690E-03	3.630E-03
-21.515	4.010E-03	3.940E-03
-21.514	4.340E-03	4.270E-03
-21.513	4.700E-03	4.630E-03
-21.512	5.100E-03	5.020E-03
-21.511	5.510E-03	5.430E-03
-21.510	5.970E-03	5.880E-03
-21.509	6.460E-03	6.360E-03
-21.508	6.980E-03	6.870E-03
-21.507	7.550E-03	7.430E-03
-21.506	8.150E-03	8.020E-03
-21.505	8.810E-03	8.670E-03
-21.504	9.510E-03	9.350E-03
-21.503	1.026E-02	1.010E-02
-21.502	1.106E-02	1.088E-02
-21.501	1.193E-02	1.175E-02
-21.500	1.286E-02	1.265E-02
-21.499	1.386E-02	1.364E-02
-21.498	1.492E-02	1.468E-02
-21.497	1.607E-02	1.580E-02
-21.496	1.726E-02	1.705E-02
-21.495	1.859E-02	1.827E-02
-21.494	1.995E-02	1.963E-02
-21.493	2.146E-02	2.112E-02
-21.492	2.311E-02	2.276E-02
-21.491	2.480E-02	2.435E-02
-21.490	2.660E-02	2.620E-02
-21.489	2.850E-02	2.810E-02
-21.488	3.060E-02	3.010E-02
-21.487	3.280E-02	3.230E-02
-21.486	3.520E-02	3.460E-02
-21.485	3.770E-02	3.710E-02
-21.484	4.040E-02	3.970E-02
-21.483	4.330E-02	4.250E-02
-21.482	4.620E-02	4.550E-02
-21.481	4.940E-02	4.870E-02
-21.480	5.290E-02	5.200E-02
-21.479	5.660E-02	5.560E-02
-21.478	6.040E-02	5.950E-02
-21.477	6.450E-02	6.340E-02
-21.476	6.890E-02	6.770E-02
-21.475	7.350E-02	7.230E-02
-21.474	7.830E-02	7.710E-02
-21.473	8.350E-02	8.220E-02
-21.472	8.900E-02	8.760E-02
-21.471	9.480E-02	9.330E-02
-21.470	1.010E-01	9.940E-02
-21.469	1.076E-01	1.058E-01
-21.468	1.144E-01	1.126E-01
-21.467	1.217E-01	1.197E-01
-21.466	1.294E-01	1.273E-01
-21.465	1.375E-01	1.353E-01
-21.464	1.461E-01	1.438E-01
-21.463	1.552E-01	1.527E-01
-21.462	1.647E-01	1.620E-01
-21.461	1.747E-01	1.716E-01
-21.460	1.852E-01	1.820E-01
-21.459	1.970E-01	1.937E-01
-21.458	2.080E-01	2.046E-01
-21.457	2.203E-01	2.169E-01
-21.456	2.339E-01	2.303E-01
-21.455	2.480E-01	2.430E-01
-21.454	2.620E-01	2.580E-01
-21.453	2.770E-01	2.730E-01
-21.452	2.930E-01	2.880E-01
-21.451	3.100E-01	3.040E-01
-21.450	3.270E-01	3.220E-01
-21.449	3.460E-01	3.400E-01
-21.448	3.640E-01	3.590E-01
-21.447	3.850E-01	3.790E-01
-21.446	4.060E-01	4.000E-01
-21.445	4.280E-01	4.210E-01
-21.444	4.520E-01	4.440E-01
-21.443	4.760E-01	4.680E-01
-21.442	5.020E-01	4.930E-01
-21.441	5.270E-01	5.200E-01
-21.440	5.550E-01	5.470E-01
-21.439	5.840E-01	5.750E-01
-21.438	6.140E-01	6.050E-01
-21.437	6.460E-01	6.360E-01
-21.436	6.790E-01	6.680E-01
-21.435	7.140E-01	7.020E-01
-21.434	7.490E-01	7.370E-01
-21.433	7.860E-01	7.740E-01
-21.432	8.250E-01	8.120E-01
-21.431	8.650E-01	8.520E-01
-21.430	9.080E-01	8.930E-01
-21.429	9.510E-01	9.360E-01
-21.428	9.960E-01	9.800E-01
-21.427	1.043E+00	1.027E+00
-21.426	1.092E+00	1.076E+00
-21.425	1.144E+00	1.125E+00
-21.424	1.197E+00	1.177E+00
-21.423	1.251E+00	1.231E+00
-21.422	1.308E+00	1.286E+00
-21.421	1.367E+00	1.344E+00
-21.420	1.427E+00	1.404E+00
-21.419	1.491E+00	1.466E+00
-21.418	1.556E+00	1.531E+00
-21.417	1.624E+00	1.597E+00
-21.416	1.693E+00	1.666E+00
-21.415	1.765E+00	1.738E+00
-21.414	1.842E+00	1.809E+00
-21.413	1.917E+00	1.883E+00
-21.412	1.993E+00	1.969E+00
-21.411	2.080E+00	2.046E+00
-21.410	2.159E+00	2.134E+00
-21.409	2.249E+00	2.213E+00
-21.408	2.340E+00	2.300E+00
-21.407	2.430E+00	2.400E+00
-21.406	2.530E+00	2.490E+00
-21.405	2.630E+00	2.580E+00
-21.404	2.730E+00	2.690E+00
-21.403	2.840E+00	2.790E+00
-21.402	2.930E+00	2.890E+00
-21.401	3.050E+00	3.000E+00
-21.400	3.160E+00	3.110E+00
-21.399	3.280E+00	3.230E+00
-21.398	3.400E+00	3.340E+00
-21.397	3.510E+00	3.460E+00
-21.396	3.640E+00	3.580E+00
-21.395	3.770E+00	3.710E+00
-21.394	3.900E+00	3.840E+00
-21.393	4.030E+00	3.970E+00
-21.392	4.170E+00	4.110E+00
-21.391	4.310E+00	4.240E+00
-21.390	4.460E+00	4.390E+00
-21.389	4.600E+00	4.530E+00
-21.388	4.750E+00	4.680E+00
-21.387	4.900E+00	4.830E+00
-21.386	5.070E+00	4.980E+00
-21.385	5.220E+00	5.140E+00
-21.384	5.390E+00	5.300E+00
-21.383	5.550E+00	5.470E+00
-21.382	5.720E+00	5.620E+00
-21.381	5.890E+00	5.790E+00
-21.380	6.070E+00	5.970E+00
-21.379	6.250E+00	6.150E+00
-21.378	6.430E+00	6.330E+00
-21.377	6.610E+00	6.510E+00
-21.376	6.800E+00	6.690E+00
-21.375	6.990E+00	6.880E+00
-21.374	7.180E+00	7.070E+00
-21.373	7.380E+00	7.260E+00
-21.372	7.580E+00	7.460E+00
-21.371	7.780E+00	7.660E+00
-21.370	7.990E+00	7.860E+00
-21.369	8.200E+00	8.070E+00
-21.368	8.410E+00	8.270E+00
-21.367	8.620E+00	8.480E+00
-21.366	8.840E+00	8.690E+00
-21.365	9.050E+00	8.910E+00
-21.364	9.270E+00	9.120E+00
-21.363	9.500E+00	9.350E+00
-21.362	9.720E+00	9.560E+00
-21.361	9.950E+00	9.790E+00
-21.360	1.018E+01	1.001E+01
-21.359	1.041E+01	1.024E+01
-21.358	1.065E+01	1.048E+01
-21.357	1.088E+01	1.071E+01
-21.356	1.112E+01	1.094E+01
-21.355	1.136E+01	1.118E+01
-21.354	1.159E+01	1.142E+01
-21.353	1.184E+01	1.165E+01
-21.352	1.208E+01	1.189E+01
-21.351	1.233E+01	1.213E+01
-21.350	1.258E+01	1.237E+01
-21.349	1.283E+01	1.262E+01
-21.348	1.307E+01	1.286E+01
-21.347	1.332E+01	1.311E+01
-21.346	1.357E+01	1.335E+01
-21.345	1.382E+01	1.360E+01
-21.344	1.408E+01	1.385E+01
-21.343	1.432E+01	1.409E+01
-21.342	1.458E+01	1.435E+01
-21.341	1.484E+01	1.459E+01
-21.340	1.508E+01	1.485E+01
-21.339	1.534E+01	1.509E+01
-21.338	1.559E+01	1.535E+01
-21.337	1.584E+01	1.559E+01
-21.336	1.610E+01	1.583E+01
-21.335	1.636E+01	1.609E+01
-21.334	1.660E+01	1.633E+01
-21.333	1.686E+01	1.658E+01
-21.332	1.711E+01	1.683E+01
-21.331	1.735E+01	1.708E+01
-21.330	1.761E+01	1.732E+01
-21.329	1.785E+01	1.757E+01
-21.328	1.810E+01	1.781E+01
-21.327	1.834E+01	1.805E+01
-21.326	1.859E+01	1.829E+01
-21.325	1.883E+01	1.852E+01
-21.324	1.907E+01	1.877E+01
-21.323	1.932E+01	1.901E+01
-21.322	1.954E+01	1.924E+01
-21.321	1.976E+01	1.950E+01
-21.320	1.998E+01	1.972E+01
-21.319	2.030E+01	1.994E+01
-21.318	2.052E+01	2.016E+01
-21.317	2.070E+01	2.037E+01
-21.316	2.100E+01	2.059E+01
-21.315	2.120E+01	2.080E+01
-21.314	2.140E+01	2.100E+01
-21.313	2.160E+01	2.120E+01
-21.312	2.180E+01	2.140E+01
-21.311	2.200E+01	2.160E+01
-21.310	2.220E+01	2.190E+01
-21.309	2.240E+01	2.210E+01
-21.308	2.260E+01	2.230E+01
-21.307	2.280E+01	2.250E+01
-21.306	2.310E+01	2.270E+01
-21.305	2.330E+01	2.290E+01
-21.304	2.350E+01	2.310E+01
-21.303	2.370E+01	2.330E+01
-21.302	2.390E+01	2.350E+01
-21.301	2.410E+01	2.370E+01
-21.300	2.430E+01	2.390E+01
-21.299	2.430E+01	2.400E+01
-21.298	2.450E+01	2.410E+01
-21.297	2.470E+01	2.430E+01
-21.296	2.490E+01	2.450E+01
-21.295	2.510E+01	2.470E+01
-21.294	2.530E+01	2.480E+01
-21.293	2.540E+01	2.500E+01
-21.292	2.560E+01	2.520E+01
-21.291	2.570E+01	2.530E+01
-21.290	2.580E+01	2.540E+01
-21.289	2.600E+01	2.560E+01
-21.288	2.620E+01	2.580E+01
-21.287	2.640E+01	2.590E+01
-21.286	2.640E+01	2.600E+01
-21.285	2.660E+01	2.620E+01
-21.284	2.670E+01	2.630E+01
-21.283	2.680E+01	2.640E+01
-21.282	2.700E+01	2.650E+01
-21.281	2.710E+01	2.670E+01
-21.280	2.720E+01	2.680E+01
-21.279	2.730E+01	2.690E+01
-21.278	2.750E+01	2.710E+01
-21.277	2.750E+01	2.710E+01
-21.276	2.770E+01	2.730E+01
-21.275	2.770E+01	2.730E+01
-21.274	2.790E+01	2.750E+01
-21.273	2.800E+01	2.750E+01
-21.272	2.810E+01	2.760E+01
-21.271	2.820E+01	2.770E+01
-21.270	2.830E+01	2.780E+01
-21.269	2.840E+01	2.790E+01
-21.268	2.840E+01	2.800E+01
-21.267	2.860E+01	2.800E+01
-21.266	2.860E+01	2.820E+01
-21.265	2.860E+01	2.820E+01
-21.264	2.880E+01	2.820E+01
-21.263	2.880E+01	2.840E+01
-21.262	2.890E+01	2.840E+01
-21.261	2.900E+01	2.850E+01
-21.260	2.900E+01	2.860E+01
-21.259	2.910E+01	2.860E+01
-21.258	2.920E+01	2.870E+01
-21.257	2.920E+01	2.880E+01
-21.256	2.930E+01	2.880E+01
-21.255	2.930E+01	2.890E+01
-21.254	2.940E+01	2.890E+01
-21.253	2.950E+01	2.900E+01
-21.252	2.950E+01	2.910E+01
-21.251	2.950E+01	2.910E+01
-21.250	2.960E+01	2.910E+01
-21.249	2.970E+01	2.910E+01
-21.248	2.970E+01	2.930E+01
-21.247	2.970E+01	2.930E+01
-21.246	2.970E+01	2.930E+01
-21.245	2.990E+01	2.930E+01
-21.244	2.990E+01	2.930E+01
-21.243	2.990E+01	2.940E+01
-21.242	2.990E+01	2.950E+01
-21.241	2.990E+01	2.950E+01
-21.240	3.000E+01	2.950E+01
-21.239	3.000E+01	2.950E+01
-21.238	3.010E+01	2.950E+01
-21.237	3.010E+01	2.960E+01
-21.236	3.010E+01	2.960E+01
-21.235	3.010E+01	2.970E+01
-21.234	3.020E+01	2.970E+01
-21.233	3.020E+01	2.970E+01
-21.232	3.020E+01	2.970E+01
-21.231	3.020E+01	2.970E+01
-21.230	3.020E+01	2.980E+01
-21.229	3.030E+01	2.980E+01
-21.228	3.030E+01	2.980E+01
-21.227	3.030E+01	2.980E+01
-21.226	3.030E+01	2.980E+01
-21.225	3.040E+01	2.980E+01
-21.224	3.040E+01	2.980E+01
-21.223	3.040E+01	2.990E+01
-21.222	3.040E+01	2.990E+01
-21.221	3.040E+01	2.990E+01
-21.220	3.040E+01	2.990E+01
-21.219	3.040E+01	3.000E+01
-21.218	3.040E+01	3.000E+01
-21.217	3.040E+01	3.000E+01
-21.216	3.040E+01	3.000E+01
-21.215	3.040E+01	3.000E+01
-21.214	3.050E+01	3.000E+01
-21.213	3.050E+01	3.000E+01
-21.212	3.050E+01	3.000E+01
-21.211	3.050E+01	3.000E+01
-21.210	3.060E+01	3.000E+01
-21.209	3.060E+01	3.000E+01
-21.208	3.060E+01	3.000E+01
-21.207	3.060E+01	3.000E+01
-21.206	3.060E+01	3.000E+01
-21.205	3.060E+01	3.000E+01
-21.204	3.060E+01	3.000E+01
-21.203	3.060E+01	3.000E+01
-21.202	3.060E+01	3.000E+01
-21.201	3.060E+01	3.000E+01
-21.200	3.060E+01	3.000E+01
-21.199	3.060E+01	3.000E+01
-21.198	3.060E+01	3.000E+01
-21.197	3.060E+01	3.010E+01
-21.196	3.060E+01	3.010E+01
-21.195	3.060E+01	3.010E+01
-21.194	3.060E+01	3.020E+01
-21.193	3.060E+01	3.020E+01
-21.192	3.060E+01	3.020E+01
-21.191	3.060E+01	3.020E+01
-21.190	3.060E+01	3.020E+01
-21.189	3.060E+01	3.020E+01
-21.188	3.060E+01	3.020E+01
-21.187	3.060E+01	3.020E+01
-21.186	3.060E+01	3.020E+01
-21.185	3.060E+01	3.020E+01
-21.184	3.060E+01	3.020E+01
-21.183	3.060E+01	3.020E+01
-21.182	3.060E+01	3.020E+01
-21.181	3.060E+01	3.020E+01
-21.180	3.060E+01	3.020E+01
-21.179	3.060E+01	3.020E+01
-21.178	3.060E+01	3.020E+01
-21.177	3.060E+01	3.020E+01
-21.176	3.060E+01	3.020E+01
-21.175	3.060E+01	3.020E+01
-21.174	3.060E+01	3.020E+01
-21.173	3.060E+01	3.020E+01
-21.172	3.060E+01	3.020E+01
-21.171	3.060E+01	3.020E+01
-21.170	3.060E+01	3.020E+01
-21.169	3.060E+01	3.020E+01
-21.168	3.060E+01	3.020E+01
-21.167	3.060E+01	3.020E+01
-21.166	3.060E+01	3.020E+01
-21.165	3.060E+01	3.020E+01
-21.164	3.060E+01	3.020E+01
-21.163	3.060E+01	3.020E+01
-21.162	3.060E+01	3.020E+01
-21.161	3.060E+01	3.020E+01
-21.160	3.060E+01	3.020E+01
-21.159	3.060E+01	3.020E+01
-21.158	3.060E+01	3.020E+01
-21.157	3.060E+01	3.020E+01
-21.156	3.060E+01	3.020E+01
-21.155	3.060E+01	3.020E+01
-21.154	3.060E+01	3.020E+01
-21.153	3.060E+01	3.020E+01
-21.152	3.060E+01	3.020E+01
-21.151	3.060E+01	3.020E+01
-21.150	3.060E+01	3.020E+01
-21.149	3.060E+01	3.020E+01
-21.148	3.060E+01	3.020E+01
-21.147	3.060E+01	3.020E+01
-21.146	3.060E+01	3.020E+01
-21.145	3.060E+01	3.020E+01
-21.144	3.060E+01	3.020E+01
-21.143	3.060E+01	3.020E+01
-21.142	3.060E+01	3.020E+01
-21.141	3.060E+01	3.020E+01
-21.140	3.060E+01	3.020E+01
-21.139	3.060E+01	3.020E+01
-21.138	3.060E+01	3.020E+01
-21.137	3.060E+01	3.020E+01
-21.136	3.060E+01	3.020E+01
-21.135	3.060E+01	3.020E+01
-21.134	3.060E+01	3.020E+01
-21.133	3.060E+01	3.020E+01
-21.132	3.060E+01	3.020E+01
-21.131	3.060E+01	3.020E+01
-21.130	3.060E+01	3.020E+01
-21.129	3.060E+01	3.020E+01
-21.128	3.060E+01	3.020E+01
-21.127	3.060E+01	3.020E+01
-21.126	3.060E+01	3.020E+01
-21.125	3.060E+01	3.020E+01
-21.124	3.060E+01	3.020E+01
-21.123	3.060E+01	3.020E+01
-21.122	3.060E+01	3.020E+01
-21.121	3.060E+01	3.020E+01
-21.120	3.060E+01	3.020E+01
-21.119	3.060E+01	3.020E+01
-21.118	3.060E+01	3.020E+01
-21.117	3.060E+01	3.020E+01
-21.116	3.060E+01	3.020E+01
-21.115	3.060E+01	3.020E+01
-21.114	3.060E+01	3.020E+01
-21.113	3.060E+01	3.020E+01
-21.112	3.060E+01	3.020E+01
-21.111	3.060E+01	3.020E+01
-21.110	3.060E+01	3.020E+01
-21.109	3.060E+01	3.020E+01
-21.108	3.060E+01	3.020E+01
-21.107	3.060E+01	3.020E+01
-21.106	3.060E+01	3.020E+01
-21.105	3.060E+01	3.020E+01
-21.104	3.060E+01	3.020E+01
-21.103	3.060E+01	3.020E+01
-21.102	3.060E+01	3.020E+01
-21.101	3.060E+01	3.020E+01
-21.100	3.060E+01	3.020E+01
-21.099	3.060E+01	3.020E+01
-21.098	3.060E+01	3.020E+01
-21.097	3.060E+01	3.020E+01
-21.096	3.060E+01	3.020E+01
-21.095	3.060E+01	3.020E+01
-21.094	3.060E+01	3.020E+01
-21.093	3.060E+01	3.020E+01
-21.092	3.060E+01	3.020E+01
-21.091	3.060E+01	3.020E+01
-21.090	3.060E+01	3.020E+01
-21.089	3.060E+01	3.020E+01
-21.088	3.060E+01	3.020E+01
-21.087	3.060E+01	3.020E+01
-21.086	3.060E+01	3.020E+01
-21.085	3.060E+01	3.020E+01
-21.084	3.060E+01	3.020E+01
-21.083	3.060E+01	3.020E+01
-21.082	3.060E+01	3.020E+01
-21.081	3.060E+01	3.020E+01
-21.080	3.060E+01	3.020E+01
-21.079	3.060E+01	3.020E+01
-21.078	3.060E+01	3.020E+01
-21.077	3.060E+01	3.020E+01
-21.076	3.060E+01	3.020E+01
-21.075	3.060E+01	3.020E+01
-21.074	3.060E+01	3.020E+01
-21.073	3.060E+01	3.020E+01
-21.072	3.060E+01	3.020E+01
-21.071	3.060E+01	3.020E+01
-21.070	3.060E+01	3.020E+01
-21.069	3.060E+01	3.020E+01
-21.068	3.060E+01	3.020E+01
-21.067	3.060E+01	3.020E+01
-21.066	3.060E+01	3.020E+01
-21.065	3.060E+01	3.020E+01
-21.064	3.060E+01	3.020E+01
-21.063	3.060E+01	3.020E+01
-21.062	3.060E+01	3.020E+01
-21.061	3.060E+01	3.020E+01
-21.060	3.060E+01	3.020E+01
-21.059	3.060E+01	3.020E+01
-21.058	3.060E+01	3.020E+01
-21.057	3.060E+01	3.020E+01
-21.056	3.060E+01	3.020E+01
-21.055	3.060E+01	3.020E+01
-21.054	3.060E+01	3.020E+01
-21.053	3.060E+01	3.020E+01
-21.052	3.060E+01	3.020E+01
-21.051	3.060E+01	3.020E+01
-21.050	3.060E+01	3.020E+01
-21.049	3.060E+01	3.020E+01
-21.048	3.070E+01	3.020E+01
-21.047	3.070E+01	3.020E+01
-21.046	3.080E+01	3.020E+01
-21.045	3.080E+01	3.020E+01
-21.044	3.080E+01	3.020E+01
-21.043	3.080E+01	3.020E+01
-21.042	3.080E+01	3.020E+01
-21.041	3.080E+01	3.020E+01
-21.040	3.080E+01	3.020E+01
-21.039	3.080E+01	3.020E+01
-21.038	3.080E+01	3.020E+01
-21.037	3.080E+01	3.020E+01
-21.036	3.080E+01	3.020E+01
-21.035	3.080E+01	3.020E+01
-21.034	3.080E+01	3.020E+01
-21.033	3.080E+01	3.020E+01
-21.032	3.080E+01	3.020E+01
-21.031	3.080E+01	3.020E+01
-21.030	3.080E+01	3.020E+01
-21.029	3.080E+01	3.020E+01
-21.028	3.080E+01	3.020E+01
-21.027	3.080E+01	3.020E+01
-21.026	3.080E+01	3.020E+01
-21.025	3.080E+01	3.020E+01
-21.024	3.080E+01	3.020E+01
-21.023	3.080E+01	3.020E+01
-21.022	3.080E+01	3.020E+01
-21.021	3.080E+01	3.020E+01
-21.020	3.080E+01	3.020E+01
-21.019	3.080E+01	3.020E+01
-21.018	3.080E+01	3.020E+01
-21.017	3.080E+01	3.020E+01
-21.016	3.080E+01	3.020E+01
-21.015	3.080E+01	3.020E+01
-21.014	3.080E+01	3.020E+01
-21.013	3.080E+01	3.020E+01
-21.012	3.080E+01	3.020E+01
-21.011	3.080E+01	3.020E+01
-21.010	3.080E+01	3.020E+01
-21.009	3.080E+01	3.020E+01
-21.008	3.080E+01	3.020E+01
-21.007	3.080E+01	3.020E+01
-21.006	3.080E+01	3.020E+01
-21.005	3.080E+01	3.020E+01
-21.004	3.080E+01	3.020E+01
-21.003	3.080E+01	3.020E+01
-21.002	3.080E+01	3.020E+01
-21.001	3.080E+01	3.020E+01
-21.000	3.080E+01	3.020E+01
-20.999	3.080E+01	3.020E+01
-20.998	3.080E+01	3.020E+01
-20.997	3.080E+01	3.020E+01
-20.996	3.080E+01	3.020E+01
-20.995	3.080E+01	3.020E+01
-20.994	3.080E+01	3.020E+01
-20.993	3.080E+01	3.020E+01
-20.992	3.080E+01	3.020E+01
-20.991	3.080E+01	3.020E+01
-20.990	3.080E+01	3.020E+01
-20.989	3.080E+01	3.020E+01
-20.988	3.080E+01	3.020E+01
-20.987	3.080E+01	3.020E+01
-20.986	3.080E+01	3.020E+01
-20.985	3.080E+01	3.020E+01
-20.984	3.080E+01	3.020E+01
-20.983	3.080E+01	3.020E+01
-20.982	3.080E+01	3.020E+01
-20.981	3.080E+01	3.020E+01
-20.980	3.080E+01	3.020E+01
-20.979	3.080E+01	3.020E+01
-20.978	3.080E+01	3.020E+01
-20.977	3.080E+01	3.020E+01
-20.976	3.080E+01	3.020E+01
-20.975	3.080E+01	3.020E+01
-20.974	3.080E+01	3.020E+01
-20.973	3.080E+01	3.020E+01
-20.972	3.080E+01	3.020E+01
-20.971	3.080E+01	3.020E+01
-20.970	3.080E+01	3.020E+01
-20.969	3.080E+01	3.020E+01
-20.968	3.080E+01	3.020E+01
-20.967	3.080E+01	3.020E+01
-20.966	3.080E+01	3.020E+01
-20.965	3.080E+01	3.020E+01
-20.964	3.080E+01	3.020E+01
-20.963	3.080E+01	3.020E+01
-20.962	3.080E+01	3.020E+01
-20.961	3.080E+01	3.020E+01
-20.960	3.080E+01	3.020E+01
-20.959	3.080E+01	3.020E+01
-20.958	3.080E+01	3.020E+01
-20.957	3.080E+01	3.020E+01
-20.956	3.080E+01	3.020E+01
-20.955	3.080E+01	3.020E+01
-20.954	3.080E+01	3.020E+01
-20.953	3.080E+01	3.020E+01
-20.952	3.080E+01	3.020E+01
-20.951	3.080E+01	3.020E+01
-20.950	3.080E+01	3.020E+01
-20.949	3.080E+01	3.020E+01
-20.948	3.080E+01	3.020E+01
-20.947	3.080E+01	3.020E+01
-20.946	3.080E+01	3.020E+01
-20.945	3.080E+01	3.020E+01
-20.944	3.080E+01	3.020E+01
-20.943	3.080E+01	3.020E+01
-20.942	3.080E+01	3.020E+01
-20.941	3.080E+01	3.020E+01
-20.940	3.080E+01	3.020E+01
-20.939	3.080E+01	3.020E+01
-20.938	3.080E+01	3.020E+01
-20.937	3.080E+01	3.020E+01
-20.936	3.080E+01	3.020E+01
-20.935	3.080E+01	3.020E+01
-20.934	3.080E+01	3.020E+01
-20.933	3.080E+01	3.020E+01
-20.932	3.080E+01	3.020E+01
-20.931	3.080E+01	3.020E+01
-20.930	3.080E+01	3.020E+01
-20.929	3.080E+01	3.020E+01
-20.928	3.080E+01	3.020E+01
-20.927	3.080E+01	3.020E+01
-20.926	3.080E+01	3.020E+01
-20.925	3.080E+01	3.020E+01
-20.924	3.080E+01	3.020E+01
-20.923	3.080E+01	3.020E+01
-20.922	3.080E+01	3.020E+01
-20.921	3.080E+01	3.020E+01
-20.920	3.080E+01	3.020E+01
-20.919	3.080E+01	3.020E+01
-20.918	3.080E+01	3.020E+01
-20.917	3.080E+01	3.020E+01
-20.916	3.080E+01	3.020E+01
-20.915	3.080E+01	3.020E+01
-20.914	3.080E+01	3.020E+01
-20.913	3.080E+01	3.020E+01
-20.912	3.080E+01	3.020E+01
-20.911	3.080E+01	3.020E+01
-20.910	3.080E+01	3.020E+01
-20.909	3.080E+01	3.020E+01
-20.908	3.080E+01	3.020E+01
-20.907	3.080E+01	3.020E+01
-20.906	3.080E+01	3.020E+01
-20.905	3.080E+01	3.020E+01
-20.904	3.080E+01	3.020E+01
-20.903	3.080E+01	3.020E+01
-20.902	3.080E+01	3.020E+01
-20.901	3.080E+01	3.020E+01
-20.900	3.080E+01	3.020E+01
-20.899	3.080E+01	3.020E+01
-20.898	3.080E+01	3.020E+01
-20.897	3.080E+01	3.020E+01
-20.896	3.080E+01	3.020E+01
-20.895	3.080E+01	3.020E+01
-20.894	3.080E+01	3.020E+01
-20.893	3.080E+01	3.020E+01
-20.892	3.080E+01	3.020E+01
-20.891	3.080E+01	3.020E+01
-20.890	3.080E+01	3.020E+01
-20.889	3.080E+01	3.020E+01
-20.888	3.080E+01	3.020E+01
-20.887	3.080E+01	3.020E+01
-20.886	3.080E+01	3.020E+01
-20.885	3.080E+01	3.020E+01
-20.884	3.080E+01	3.020E+01
-20.883	3.080E+01	3.020E+01
-20.882	3.080E+01	3.020E+01
-20.881	3.080E+01	3.020E+01
-20.880	3.080E+01	3.020E+01
-20.879	3.080E+01	3.020E+01
-20.878	3.080E+01	3.020E+01
-20.877	3.080E+01	3.020E+01
-20.876	3.080E+01	3.020E+01
-20.875	3.080E+01	3.020E+01
-20.874	3.080E+01	3.020E+01
-20.873	3.080E+01	3.020E+01
-20.872	3.080E+01	3.020E+01
-20.871	3.080E+01	3.020E+01
-20.870	3.080E+01	3.020E+01
-20.869	3.080E+01	3.020E+01
-20.868	3.080E+01	3.020E+01
-20.867	3.080E+01	3.020E+01
-20.866	3.080E+01	3.020E+01
-20.865	3.080E+01	3.020E+01
-20.864	3.080E+01	3.020E+01
-20.863	3.080E+01	3.020E+01
-20.862	3.080E+01	3.020E+01
-20.861	3.080E+01	3.020E+01
-20.860	3.080E+01	3.020E+01
-20.859	3.080E+01	3.020E+01
-20.858	3.080E+01	3.020E+01
-20.857	3.080E+01	3.020E+01
-20.856	3.080E+01	3.020E+01
-20.855	3.080E+01	3.020E+01
-20.854	3.080E+01	3.020E+01
-20.853	3.080E+01	3.020E+01
-20.852	3.080E+01	3.020E+01
-20.851	3.080E+01	3.020E+01
-20.850	3.080E+01	3.020E+01
-20.849	3.080E+01	3.020E+01
-20.848	3.080E+01	3.020E+01
-20.847	3.080E+01	3.020E+01
-20.846	3.080E+01	3.020E+01
-20.845	3.080E+01	3.020E+01
-20.844	3.080E+01	3.020E+01
-20.843	3.080E+01	3.020E+01
-20.842	3.080E+01	3.020E+01
-20.841	3.080E+01	3.020E+01
-20.840	3.080E+01	3.020E+01
-20.839	3.080E+01	3.020E+01
-20.838	3.080E+01	3.020E+01
-20.837	3.080E+01	3.020E+01
-20.836	3.080E+01	3.020E+01
-20.835	3.080E+01	3.020E+01
-20.834	3.080E+01	3.020E+01
-20.833	3.080E+01	3.020E+01
-20.832	3.080E+01	3.020E+01
-20.831	3.080E+01	3.020E+01
-20.830	3.080E+01	3.020E+01
-20.829	3.080E+01	3.020E+01
-20.828	3.080E+01	3.020E+01
-20.827	3.080E+01	3.020E+01
-20.826	3.080E+01	3.020E+01
-20.825	3.080E+01	3.020E+01
-20.824	3.080E+01	3.020E+01
-20.823	3.080E+01	3.020E+01
-20.822	3.080E+01	3.020E+01
-20.821	3.080E+01	3.020E+01
-20.820	3.080E+01	3.020E+01
-20.819	3.080E+01	3.020E+01
-20.818	3.080E+01	3.020E+01
-20.817	3.080E+01	3.020E+01
-20.816	3.080E+01	3.020E+01
-20.815	3.080E+01	3.020E+01
-20.814	3.080E+01	3.020E+01
-20.813	3.080E+01	3.020E+01
-20.812	3.080E+01	3.020E+01
-20.811	3.080E+01	3.020E+01
-20.810	3.080E+01	3.020E+01
-20.809	3.080E+01	3.020E+01
-20.808	3.080E+01	3.020E+01
-20.807	3.080E+01	3.020E+01
-20.806	3.080E+01	3.020E+01
-20.805	3.080E+01	3.020E+01
-20.804	3.080E+01	3.020E+01
-20.803	3.080E+01	3.020E+01
-20.802	3.080E+01	3.020E+01
-20.801	3.080E+01	3.020E+01
-20.800	3.080E+01	3.020E+01
-20.799	3.080E+01	3.020E+01
-20.798	3.080E+01	3.020E+01
-20.797	3.080E+01	3.020E+01
-20.796	3.080E+01	3.020E+01
-20.795	3.080E+01	3.020E+01
-20.794	3.080E+01	3.020E+01
-20.793	3.080E+01	3.020E+01
-20.792	3.080E+01	3.020E+01
-20.791	3.080E+01	3.020E+01
-20.790	3.080E+01	3.020E+01
-20.789	3.080E+01	3.020E+01
-20.788	3.080E+01	3.020E+01
-20.787	3.080E+01	3.020E+01
-20.786	3.080E+01	3.020E+01
-20.785	3.080E+01	3.020E+01
-20.784	3.080E+01	3.020E+01
-20.783	3.080E+01	3.020E+01
-20.782	3.080E+01	3.020E+01
-20.781	3.080E+01	3.020E+01
-20.780	3.080E+01	3.020E+01
-20.779	3.080E+01	3.020E+01
-20.778	3.080E+01	3.020E+01
-20.777	3.080E+01	3.020E+01
-20.776	3.080E+01	3.020E+01
-20.775	3.080E+01	3.020E+01
-20.774	3.080E+01	3.020E+01
-20.773	3.080E+01	3.020E+01
-20.772	3.080E+01	3.020E+01
-20.771	3.080E+01	3.020E+01
-20.770	3.080E+01	3.020E+01
-20.769	3.080E+01	3.020E+01
-20.768	3.080E+01	3.020E+01
-20.767	3.080E+01	3.020E+01
-20.766	3.080E+01	3.020E+01
-20.765	3.080E+01	3.020E+01
-20.764	3.080E+01	3.020E+01
-20.763	3.080E+01	3.020E+01
-20.762	3.080E+01	3.020E+01
-20.761	3.080E+01	3.020E+01
-20.760	3.080E+01	3.020E+01
-20.759	3.080E+01	3.020E+01
-20.758	3.080E+01	3.020E+01
-20.757	3.080E+01	3.020E+01
-20.756	3.080E+01	3.020E+01
-20.755	3.080E+01	3.020E+01
-20.754	3.080E+01	3.020E+01
-20.753	3.080E+01	3.020E+01
-20.752	3.080E+01	3.020E+01
-20.751	3.080E+01	3.020E+01
-20.750	3.080E+01	3.020E+01
-20.749	3.080E+01	3.020E+01
-20.748	3.080E+01	3.020E+01
-20.747	3.080E+01	3.020E+01
-20.746	3.080E+01	3.020E+01
-20.745	3.080E+01	3.020E+01
-20.744	3.080E+01	3.020E+01
-20.743	3.080E+01	3.020E+01
-20.742	3.080E+01	3.020E+01
-20.741	3.080E+01	3.020E+01
-20.740	3.080E+01	3.020E+01
-20.739	3.080E+01	3.020E+01
-20.738	3.080E+01	3.020E+01
-20.737	3.080E+01	3.020E+01
-20.736	3.080E+01	3.020E+01
-20.735	3.080E+01	3.020E+01
-20.734	3.080E+01	3.020E+01
-20.733	3.080E+01	3.020E+01
-20.732	3.080E+01	3.020E+01
-20.731	3.080E+01	3.020E+01
-20.730	3.080E+01	3.020E+01
-20.729	3.080E+01	3.020E+01
-20.728	3.080E+01	3.020E+01
-20.727	3.080E+01	3.020E+01
-20.726	3.080E+01	3.020E+01
-20.725	3.080E+01	3.020E+01
-20.724	3.080E+01	3.020E+01
-20.723	3.080E+01	3.020E+01
-20.722	3.080E+01	3.020E+01
-20.721	3.080E+01	3.020E+01
-20.720	3.080E+01	3.020E+01
-20.719	3.080E+01	3.020E+01
-20.718	3.080E+01	3.020E+01
-20.717	3.080E+01	3.020E+01
-20.716	3.080E+01	3.020E+01
-20.715	3.080E+01	3.020E+01
-20.714	3.080E+01	3.020E+01
-20.713	3.080E+01	3.020E+01
-20.712	3.080E+01	3.020E+01
-20.711	3.080E+01	3.020E+01
-20.710	3.080E+01	3.020E+01
-20.709	3.080E+01	3.020E+01
-20.708	3.080E+01	3.020E+01
-20.707	3.080E+01	3.020E+01
-20.706	3.080E+01	3.020E+01
-20.705	3.080E+01	3.020E+01
-20.704	3.080E+01	3.020E+01
-20.703	3.080E+01	3.020E+01
-20.702	3.080E+01	3.020E+01
-20.701	3.080E+01	3.020E+01
-20.700	3.080E+01	3.020E+01
-20.699	3.080E+01	3.020E+01
-20.698	3.080E+01	3.020E+01
-20.697	3.080E+01	3.020E+01
-20.696	3.080E+01	3.020E+01
-20.695	3.080E+01	3.020E+01
-20.694	3.080E+01	3.020E+01
-20.693	3.080E+01	3.020E+01
-20.692	3.080E+01	3.020E+01
-20.691	3.080E+01	3.020E+01
-20.690	3.080E+01	3.020E+01
-20.689	3.080E+01	3.020E+01
-20.688	3.080E+01	3.020E+01
-20.687	3.080E+01	3.020E+01
-20.686	3.080E+01	3.020E+01
-20.685	3.080E+01	3.020E+01
-20.684	3.080E+01	3.020E+01
-20.683	3.080E+01	3.020E+01
-20.682	3.080E+01	3.020E+01
-20.681	3.080E+01	3.020E+01
-20.680	3.080E+01	3.020E+01
-20.679	3.080E+01	3.030E+01
-20.678	3.080E+01	3.030E+01
-20.677	3.080E+01	3.030E+01
-20.676	3.080E+01	3.030E+01
-20.675	3.080E+01	3.030E+01
-20.674	3.080E+01	3.030E+01
-20.673	3.080E+01	3.030E+01
-20.672	3.080E+01	3.030E+01
-20.671	3.080E+01	3.030E+01
-20.670	3.080E+01	3.030E+01
-20.669	3.080E+01	3.030E+01
-20.668	3.080E+01	3.030E+01
-20.667	3.080E+01	3.040E+01
-20.666	3.080E+01	3.040E+01
-20.665	3.080E+01	3.040E+01
-20.664	3.080E+01	3.040E+01
-20.663	3.080E+01	3.040E+01
-20.662	3.080E+01	3.040E+01
-20.661	3.080E+01	3.040E+01
-20.660	3.080E+01	3.040E+01
-20.659	3.080E+01	3.040E+01
-20.658	3.080E+01	3.040E+01
-20.657	3.080E+01	3.040E+01
-20.656	3.080E+01	3.040E+01
-20.655	3.080E+01	3.040E+01
-20.654	3.080E+01	3.040E+01
-20.653	3.080E+01	3.040E+01
-20.652	3.080E+01	3.040E+01
-20.651	3.080E+01	3.040E+01
-20.650	3.080E+01	3.040E+01
-20.649	3.080E+01	3.040E+01
-20.648	3.080E+01	3.040E+01
-20.647	3.080E+01	3.040E+01
-20.646	3.080E+01	3.040E+01
-20.645	3.080E+01	3.040E+01
-20.644	3.080E+01	3.040E+01
-20.643	3.080E+01	3.040E+01
-20.642	3.080E+01	3.040E+01
-20.641	3.080E+01	3.040E+01
-20.640	3.080E+01	3.040E+01
-20.639	3.080E+01	3.040E+01
-20.638	3.080E+01	3.040E+01
-20.637	3.080E+01	3.040E+01
-20.636	3.080E+01	3.040E+01
-20.635	3.080E+01	3.040E+01
-20.634	3.080E+01	3.040E+01
-20.633	3.080E+01	3.040E+01
-20.632	3.080E+01	3.040E+01
-20.631	3.080E+01	3.040E+01
-20.630	3.080E+01	3.040E+01
-20.629	3.080E+01	3.040E+01
-20.628	3.080E+01	3.040E+01
-20.627	3.080E+01	3.040E+01
-20.626	3.080E+01	3.040E+01
-20.625	3.080E+01	3.040E+01
-20.624	3.080E+01	3.040E+01
-20.623	3.080E+01	3.040E+01
-20.622	3.080E+01	3.040E+01
-20.621	3.080E+01	3.040E+01
-20.620	3.080E+01	3.040E+01
-20.619	3.080E+01	3.040E+01
-20.618	3.080E+01	3.040E+01
-20.617	3.080E+01	3.040E+01
-20.616	3.080E+01	3.040E+01
-20.615	3.080E+01	3.040E+01
-20.614	3.080E+01	3.040E+01
-20.613	3.080E+01	3.040E+01
-20.612	3.080E+01	3.040E+01
-20.611	3.080E+01	3.040E+01
-20.610	3.080E+01	3.040E+01
-20.609	3.080E+01	3.040E+01
-20.608	3.080E+01	3.040E+01
-20.607	3.080E+01	3.040E+01
-20.606	3.080E+01	3.040E+01
-20.605	3.080E+01	3.040E+01
-20.604	3.080E+01	3.040E+01
-20.603	3.080E+01	3.040E+01
-20.602	3.080E+01	3.040E+01
-20.601	3.080E+01	3.040E+01
-20.600	3.080E+01	3.040E+01
-20.599	3.080E+01	3.040E+01
-20.598	3.080E+01	3.040E+01
-20.597	3.080E+01	3.040E+01
-20.596	3.080E+01	3.040E+01
-20.595	3.080E+01	3.040E+01
-20.594	3.080E+01	3.040E+01
-20.593	3.080E+01	3.040E+01
-20.592	3.080E+01	3.040E+01
-20.591	3.080E+01	3.040E+01
-20.590	3.080E+01	3.040E+01
-20.589	3.080E+01	3.040E+01
-20.588	3.080E+01	3.040E+01
-20.587	3.080E+01	3.040E+01
-20.586	3.080E+01	3.040E+01
-20.585	3.080E+01	3.040E+01
-20.584	3.080E+01	3.040E+01
-20.583	3.080E+01	3.040E+01
-20.582	3.080E+01	3.040E+01
-20.581	3.080E+01	3.040E+01
-20.580	3.080E+01	3.040E+01
-20.579	3.080E+01	3.040E+01
-20.578	3.080E+01	3.040E+01
-20.577	3.080E+01	3.040E+01
-20.576	3.080E+01	3.040E+01
-20.575	3.080E+01	3.040E+01
-20.574	3.080E+01	3.040E+01
-20.573	3.080E+01	3.040E+01
-20.572	3.080E+01	3.040E+01
-20.571	3.080E+01	3.040E+01
-20.570	3.080E+01	3.040E+01
-20.569	3.080E+01	3.040E+01
-20.568	3.080E+01	3.040E+01
-20.567	3.080E+01	3.040E+01
-20.566	3.080E+01	3.040E+01
-20.565	3.080E+01	3.040E+01
-20.564	3.080E+01	3.040E+01
-20.563	3.080E+01	3.040E+01
-20.562	3.080E+01	3.040E+01
-20.561	3.080E+01	3.040E+01
-20.560	3.080E+01	3.040E+01
-20.559	3.080E+01	3.040E+01
-20.558	3.080E+01	3.040E+01
-20.557	3.080E+01	3.040E+01
-20.556	3.080E+01	3.040E+01
-20.555	3.080E+01	3.040E+01
-20.554	3.080E+01	3.040E+01
-20.553	3.080E+01	3.040E+01
-20.552	3.080E+01	3.040E+01
-20.551	3.080E+01	3.040E+01
-20.550	3.080E+01	3.040E+01
-20.549	3.080E+01	3.040E+01
-20.548	3.080E+01	3.040E+01
-20.547	3.080E+01	3.040E+01
-20.546	3.080E+01	3.040E+01
-20.545	3.080E+01	3.040E+01
-20.544	3.080E+01	3.040E+01
-20.543	3.080E+01	3.040E+01
-20.542	3.080E+01	3.040E+01
-20.541	3.080E+01	3.040E+01
-20.540	3.080E+01	3.040E+01
-20.539	3.080E+01	3.040E+01
-20.538	3.080E+01	3.040E+01
-20.537	3.080E+01	3.040E+01
-20.536	3.080E+01	3.040E+01
-20.535	3.080E+01	3.040E+01
-20.534	3.080E+01	3.040E+01
-20.533	3.080E+01	3.040E+01
-20.532	3.080E+01	3.040E+01
-20.531	3.080E+01	3.040E+01
-20.530	3.080E+01	3.040E+01
-20.529	3.080E+01	3.040E+01
-20.528	3.080E+01	3.040E+01
-20.527	3.080E+01	3.040E+01
-20.526	3.080E+01	3.040E+01
-20.525	3.080E+01	3.040E+01
-20.524	3.080E+01	3.040E+01
-20.523	3.080E+01	3.040E+01
-20.522	3.080E+01	3.040E+01
-20.521	3.080E+01	3.040E+01
-20.520	3.080E+01	3.040E+01
-20.519	3.080E+01	3.040E+01
-20.518	3.080E+01	3.040E+01
-20.517	3.080E+01	3.040E+01
-20.516	3.080E+01	3.040E+01
-20.515	3.080E+01	3.040E+01
-20.514	3.080E+01	3.040E+01
-20.513	3.080E+01	3.040E+01
-20.512	3.080E+01	3.040E+01
-20.511	3.080E+01	3.040E+01
-20.510	3.080E+01	3.040E+01
-20.509	3.090E+01	3.040E+01
-20.508	3.090E+01	3.040E+01
-20.507	3.090E+01	3.040E+01
-20.506	3.090E+01	3.040E+01
-20.505	3.090E+01	3.040E+01
-20.504	3.090E+01	3.040E+01
-20.503	3.090E+01	3.040E+01
-20.502	3.100E+01	3.040E+01
-20.501	3.100E+01	3.040E+01
-20.500	3.100E+01	3.040E+01
-20.499	3.100E+01	3.040E+01
-20.498	3.100E+01	3.040E+01
-20.497	3.100E+01	3.040E+01
-20.496	3.100E+01	3.040E+01
-20.495	3.100E+01	3.040E+01
-20.494	3.100E+01	3.040E+01
-20.493	3.100E+01	3.040E+01
-20.492	3.100E+01	3.040E+01
-20.491	3.100E+01	3.040E+01
-20.490	3.100E+01	3.040E+01
-20.489	3.100E+01	3.040E+01
-20.488	3.100E+01	3.040E+01
-20.487	3.100E+01	3.040E+01
-20.486	3.100E+01	3.040E+01
-20.485	3.100E+01	3.040E+01
-20.484	3.100E+01	3.040E+01
-20.483	3.100E+01	3.040E+01
-20.482	3.100E+01	3.040E+01
-20.481	3.100E+01	3.040E+01
-20.480	3.100E+01	3.040E+01
-20.479	3.100E+01	3.040E+01
-20.478	3.100E+01	3.040E+01
-20.477	3.100E+01	3.040E+01