#E (eV) 	dos(e)	pdos(E)
-21.341	0.000E+00	0.000E+00
-21.340	1.540E+01	1.520E+01
-21.339	1.310E+01	1.290E+01
-21.338	1.440E+01	1.420E+01
-21.337	1.570E+01	1.550E+01
-21.336	1.680E+01	1.650E+01
-21.335	1.973E+01	1.935E+01
-21.334	3.450E+01	3.380E+01
-21.333	2.840E+01	2.800E+01
-21.332	3.020E+01	2.970E+01
-21.331	3.190E+01	3.140E+01
-21.330	3.260E+01	3.210E+01
-21.329	2.990E+01	2.940E+01
-21.328	2.970E+01	2.920E+01
-21.327	3.000E+01	2.950E+01
-21.326	3.040E+01	2.990E+01
-21.325	3.110E+01	3.060E+01
-21.324	3.180E+01	3.120E+01
-21.323	3.070E+01	3.030E+01
-21.322	3.090E+01	3.040E+01
-21.321	3.070E+01	3.030E+01
-21.320	3.020E+01	2.980E+01
-21.319	3.030E+01	2.980E+01
-21.318	3.060E+01	3.010E+01
-21.317	3.080E+01	3.030E+01
-21.316	3.110E+01	3.060E+01
-21.315	3.090E+01	3.040E+01
-21.314	3.040E+01	2.990E+01
-21.313	3.060E+01	3.000E+01
-21.312	3.070E+01	3.030E+01
-21.311	3.090E+01	3.040E+01
-21.310	3.110E+01	3.050E+01
-21.309	3.060E+01	3.010E+01
-21.308	3.070E+01	3.010E+01
-21.307	3.070E+01	3.020E+01
-21.306	3.080E+01	3.030E+01
-21.305	3.100E+01	3.050E+01
-21.304	3.080E+01	3.020E+01
-21.303	3.080E+01	3.020E+01
-21.302	3.060E+01	3.020E+01
-21.301	3.060E+01	3.010E+01
-21.300	3.070E+01	3.020E+01
-21.299	3.090E+01	3.040E+01
-21.298	3.120E+01	3.060E+01
-21.297	3.140E+01	3.090E+01
-21.296	3.130E+01	3.090E+01
-21.295	3.130E+01	3.070E+01
-21.294	3.160E+01	3.100E+01
-21.293	3.190E+01	3.150E+01
-21.292	3.230E+01	3.180E+01
-21.291	3.270E+01	3.220E+01
-21.290	4.250E+01	4.190E+01
-21.289	3.980E+01	3.910E+01
-21.288	3.730E+01	3.670E+01
-21.287	3.480E+01	3.420E+01
-21.286	3.230E+01	3.180E+01
-21.285	2.980E+01	2.930E+01
-21.284	3.680E+01	3.630E+01
-21.283	3.370E+01	3.310E+01
-21.282	3.041E+01	2.985E+01
-21.281	2.715E+01	2.670E+01
-21.280	4.420E+01	4.350E+01
-21.279	1.808E+01	1.779E+01
-21.278	1.686E+01	1.656E+01
-21.277	1.673E+01	1.643E+01
-21.276	1.667E+01	1.640E+01
-21.275	1.659E+01	1.632E+01
-21.274	3.043E+01	2.988E+01
-21.273	1.968E+01	1.929E+01
-21.272	2.438E+01	2.398E+01
-21.271	2.909E+01	2.868E+01
-21.270	3.389E+01	3.327E+01
-21.269	2.060E+01	2.027E+01
-21.268	2.410E+01	2.370E+01
-21.267	2.810E+01	2.770E+01
-21.266	3.210E+01	3.160E+01
-21.265	3.650E+01	3.590E+01
-21.264	2.600E+01	2.560E+01
-21.263	2.810E+01	2.770E+01
-21.262	3.920E+01	3.850E+01
-21.261	5.010E+01	4.930E+01
-21.260	2.660E+01	2.620E+01
-21.259	2.680E+01	2.630E+01
-21.258	2.690E+01	2.650E+01
-21.257	2.710E+01	2.670E+01
-21.256	2.750E+01	2.700E+01
-21.255	2.800E+01	2.750E+01
-21.254	2.720E+01	2.670E+01
-21.253	2.710E+01	2.670E+01
-21.252	2.720E+01	2.680E+01
-21.251	2.730E+01	2.690E+01
-21.250	2.740E+01	2.700E+01
-21.249	2.750E+01	2.710E+01
-21.248	2.770E+01	2.730E+01
-21.247	2.780E+01	2.740E+01
-21.246	2.800E+01	2.760E+01
-21.245	2.820E+01	2.770E+01
-21.244	2.840E+01	2.790E+01
-21.243	2.860E+01	2.810E+01
-21.242	2.870E+01	2.830E+01
-21.241	2.890E+01	2.840E+01
-21.240	3.350E+01	3.290E+01
-21.239	3.290E+01	3.240E+01
-21.238	3.250E+01	3.190E+01
-21.237	3.190E+01	3.140E+01
-21.236	3.150E+01	3.100E+01
-21.235	3.100E+01	3.050E+01
-21.234	3.580E+01	3.520E+01
-21.233	3.520E+01	3.470E+01
-21.232	3.490E+01	3.430E+01
-21.231	3.450E+01	3.390E+01
-21.230	3.080E+01	3.020E+01
-21.229	3.050E+01	3.000E+01
-21.228	3.090E+01	3.040E+01
-21.227	3.130E+01	3.080E+01
-21.226	3.170E+01	3.110E+01
-21.225	2.860E+01	2.820E+01
-21.224	2.880E+01	2.830E+01
-21.223	2.890E+01	2.850E+01
-21.222	2.910E+01	2.860E+01
-21.221	2.920E+01	2.870E+01
-21.220	2.930E+01	2.880E+01
-21.219	2.940E+01	2.900E+01
-21.218	2.960E+01	2.900E+01
-21.217	2.960E+01	2.910E+01
-21.216	2.960E+01	2.910E+01
-21.215	2.960E+01	2.900E+01
-21.214	2.950E+01	2.910E+01
-21.213	2.950E+01	2.900E+01
-21.212	2.950E+01	2.900E+01
-21.211	2.930E+01	2.890E+01
-21.210	3.130E+01	3.080E+01
-21.209	3.110E+01	3.060E+01
-21.208	3.090E+01	3.040E+01
-21.207	3.070E+01	3.010E+01
-21.206	3.040E+01	3.000E+01
-21.205	3.260E+01	3.220E+01
-21.204	3.250E+01	3.190E+01
-21.203	3.220E+01	3.160E+01
-21.202	3.190E+01	3.140E+01
-21.201	3.170E+01	3.120E+01
-21.200	3.150E+01	3.100E+01
-21.199	3.140E+01	3.100E+01
-21.198	3.150E+01	3.100E+01
-21.197	3.160E+01	3.100E+01
-21.196	3.160E+01	3.100E+01
-21.195	3.160E+01	3.110E+01
-21.194	3.180E+01	3.130E+01
-21.193	3.200E+01	3.150E+01
-21.192	3.220E+01	3.170E+01
-21.191	3.070E+01	3.010E+01
-21.190	3.080E+01	3.020E+01
-21.189	3.090E+01	3.040E+01
-21.188	3.100E+01	3.050E+01
-21.187	3.110E+01	3.060E+01
-21.186	3.130E+01	3.070E+01
-21.185	2.960E+01	2.910E+01
-21.184	2.970E+01	2.920E+01
-21.183	2.970E+01	2.930E+01
-21.182	2.990E+01	2.930E+01
-21.181	2.990E+01	2.950E+01
-21.180	3.000E+01	2.960E+01
-21.179	3.010E+01	2.960E+01
-21.178	3.010E+01	2.970E+01
-21.177	3.030E+01	2.970E+01
-21.176	3.030E+01	2.980E+01
-21.175	3.030E+01	2.980E+01
-21.174	3.030E+01	2.990E+01
-21.173	3.030E+01	2.990E+01
-21.172	3.040E+01	2.990E+01
-21.171	3.170E+01	3.110E+01
-21.170	3.160E+01	3.120E+01
-21.169	3.160E+01	3.110E+01
-21.168	3.150E+01	3.110E+01
-21.167	3.160E+01	3.100E+01
-21.166	3.150E+01	3.100E+01
-21.165	3.280E+01	3.220E+01
-21.164	3.270E+01	3.220E+01
-21.163	3.210E+01	3.150E+01
-21.162	3.190E+01	3.140E+01
-21.161	3.210E+01	3.160E+01
-21.160	3.200E+01	3.150E+01
-21.159	3.090E+01	3.040E+01
-21.158	2.900E+01	2.850E+01
-21.157	2.810E+01	2.770E+01
-21.156	2.760E+01	2.700E+01
-21.155	2.800E+01	2.760E+01
-21.154	2.930E+01	2.870E+01
-21.153	2.930E+01	2.880E+01
-21.152	2.960E+01	2.910E+01
-21.151	2.980E+01	2.930E+01
-21.150	3.010E+01	2.970E+01
-21.149	3.050E+01	2.990E+01
-21.148	3.060E+01	3.010E+01
-21.147	3.070E+01	3.020E+01
-21.146	3.080E+01	3.030E+01
-21.145	3.090E+01	3.030E+01
-21.144	3.110E+01	3.060E+01
-21.143	3.130E+01	3.070E+01
-21.142	3.040E+01	3.000E+01
-21.141	3.070E+01	3.010E+01
-21.140	3.080E+01	3.020E+01
-21.139	3.080E+01	3.030E+01
-21.138	3.090E+01	3.040E+01
-21.137	3.090E+01	3.050E+01
-21.136	3.000E+01	2.950E+01
-21.135	3.010E+01	2.950E+01
-21.134	3.010E+01	2.960E+01
-21.133	3.010E+01	2.970E+01
-21.132	3.020E+01	2.960E+01
-21.131	3.020E+01	2.970E+01
-21.130	3.020E+01	2.980E+01
-21.129	3.030E+01	2.970E+01
-21.128	3.030E+01	2.980E+01
-21.127	3.030E+01	2.980E+01
-21.126	3.020E+01	2.960E+01
-21.125	3.010E+01	2.950E+01
-21.124	2.990E+01	2.950E+01
-21.123	2.990E+01	2.940E+01
-21.122	3.130E+01	3.090E+01
-21.121	3.590E+01	3.530E+01
-21.120	3.530E+01	3.460E+01
-21.119	3.460E+01	3.400E+01
-21.118	3.550E+01	3.490E+01
-21.117	3.480E+01	3.420E+01
-21.116	3.410E+01	3.360E+01
-21.115	3.350E+01	3.290E+01
-21.114	3.730E+01	3.670E+01
-21.113	3.610E+01	3.550E+01
-21.112	3.990E+01	3.920E+01
-21.111	3.800E+01	3.730E+01
-21.110	3.610E+01	3.550E+01
-21.109	3.410E+01	3.360E+01
-21.108	3.220E+01	3.170E+01
-21.107	3.060E+01	3.010E+01
-21.106	3.390E+01	3.340E+01
-21.105	3.180E+01	3.130E+01
-21.104	2.970E+01	2.920E+01
-21.103	2.780E+01	2.740E+01
-21.102	2.590E+01	2.544E+01
-21.101	2.400E+01	2.355E+01
-21.100	2.299E+01	2.264E+01
-21.099	2.202E+01	2.166E+01
-21.098	2.111E+01	2.075E+01
-21.097	2.044E+01	2.007E+01
-21.096	2.017E+01	1.991E+01
-21.095	2.065E+01	2.029E+01
-21.094	2.146E+01	2.110E+01
-21.093	2.224E+01	2.188E+01
-21.092	2.969E+01	2.922E+01
-21.091	2.930E+01	2.885E+01
-21.090	2.930E+01	2.880E+01
-21.089	2.920E+01	2.870E+01
-21.088	2.910E+01	2.870E+01
-21.087	3.700E+01	3.640E+01
-21.086	3.580E+01	3.520E+01
-21.085	3.570E+01	3.520E+01
-21.084	3.570E+01	3.510E+01
-21.083	3.000E+01	2.950E+01
-21.082	2.860E+01	2.810E+01
-21.081	2.860E+01	2.810E+01
-21.080	3.000E+01	2.950E+01
-21.079	3.160E+01	3.110E+01
-21.078	2.730E+01	2.690E+01
-21.077	2.830E+01	2.780E+01
-21.076	2.980E+01	2.930E+01
-21.075	3.060E+01	3.010E+01
-21.074	3.230E+01	3.180E+01
-21.073	3.410E+01	3.360E+01
-21.072	2.910E+01	2.860E+01
-21.071	3.000E+01	2.950E+01
-21.070	3.100E+01	3.040E+01
-21.069	3.180E+01	3.130E+01
-21.068	3.270E+01	3.220E+01
-21.067	2.730E+01	2.690E+01
-21.066	2.740E+01	2.690E+01
-21.065	2.740E+01	2.690E+01
-21.064	2.750E+01	2.700E+01
-21.063	5.160E+01	5.080E+01
-21.062	3.270E+01	3.220E+01
-21.061	2.680E+01	2.640E+01
-21.060	2.680E+01	2.640E+01
-21.059	2.690E+01	2.640E+01
-21.058	2.690E+01	2.640E+01
-21.057	4.660E+01	4.570E+01
-21.056	3.100E+01	3.050E+01
-21.055	3.330E+01	3.280E+01
-21.054	3.570E+01	3.510E+01
-21.053	2.760E+01	2.710E+01
-21.052	2.790E+01	2.740E+01
-21.051	3.040E+01	2.990E+01
-21.050	3.300E+01	3.250E+01
-21.049	3.550E+01	3.500E+01
-21.048	3.810E+01	3.740E+01
-21.047	2.860E+01	2.820E+01
-21.046	2.860E+01	2.820E+01
-21.045	2.860E+01	2.800E+01
-21.044	2.850E+01	2.800E+01
-21.043	2.840E+01	2.800E+01
-21.042	2.840E+01	2.790E+01
-21.041	2.830E+01	2.790E+01
-21.040	2.840E+01	2.790E+01
-21.039	2.840E+01	2.780E+01
-21.038	2.830E+01	2.780E+01
-21.037	2.830E+01	2.790E+01
-21.036	2.830E+01	2.790E+01
-21.035	2.830E+01	2.790E+01
-21.034	2.840E+01	2.790E+01
-21.033	2.840E+01	2.800E+01
-21.032	2.840E+01	2.800E+01
-21.031	2.850E+01	2.800E+01
-21.030	2.860E+01	2.800E+01
-21.029	2.860E+01	2.810E+01
-21.028	2.860E+01	2.820E+01
-21.027	2.870E+01	2.820E+01
-21.026	3.590E+01	3.530E+01
-21.025	4.500E+01	4.420E+01
-21.024	5.400E+01	5.320E+01
-21.023	2.900E+01	2.840E+01
-21.022	2.900E+01	2.850E+01
-21.021	2.910E+01	2.860E+01
-21.020	2.920E+01	2.870E+01
-21.019	4.810E+01	4.740E+01
-21.018	2.910E+01	2.870E+01
-21.017	2.910E+01	2.860E+01
-21.016	2.910E+01	2.860E+01
-21.015	2.920E+01	2.860E+01
-21.014	2.860E+01	2.810E+01
-21.013	2.870E+01	2.810E+01
-21.012	2.870E+01	2.810E+01
-21.011	2.870E+01	2.810E+01
-21.010	2.870E+01	2.830E+01
-21.009	2.870E+01	2.830E+01
-21.008	2.820E+01	2.770E+01
-21.007	2.820E+01	2.770E+01
-21.006	2.830E+01	2.770E+01
-21.005	2.830E+01	2.780E+01
-21.004	2.830E+01	2.790E+01
-21.003	2.830E+01	2.790E+01
-21.002	2.830E+01	2.790E+01
-21.001	2.830E+01	2.790E+01
-21.000	2.850E+01	2.790E+01
-20.999	2.850E+01	2.790E+01
-20.998	2.850E+01	2.800E+01
-20.997	2.850E+01	2.810E+01
-20.996	2.850E+01	2.810E+01
-20.995	2.860E+01	2.810E+01
-20.994	2.870E+01	2.810E+01
-20.993	2.910E+01	2.860E+01
-20.992	2.910E+01	2.870E+01
-20.991	2.910E+01	2.870E+01
-20.990	2.910E+01	2.870E+01
-20.989	2.930E+01	2.870E+01
-20.988	2.970E+01	2.920E+01
-20.987	2.970E+01	2.920E+01
-20.986	2.970E+01	2.920E+01
-20.985	2.970E+01	2.920E+01
-20.984	3.640E+01	3.580E+01
-20.983	3.520E+01	3.450E+01
-20.982	3.430E+01	3.370E+01
-20.981	3.340E+01	3.280E+01
-20.980	3.250E+01	3.190E+01
-20.979	3.190E+01	3.130E+01
-20.978	3.820E+01	3.770E+01
-20.977	3.760E+01	3.700E+01
-20.976	3.720E+01	3.660E+01
-20.975	3.680E+01	3.620E+01
-20.974	3.210E+01	3.150E+01
-20.973	3.170E+01	3.120E+01
-20.972	3.210E+01	3.160E+01
-20.971	3.250E+01	3.200E+01
-20.970	3.290E+01	3.230E+01
-20.969	2.930E+01	2.880E+01
-20.968	2.930E+01	2.880E+01
-20.967	2.930E+01	2.880E+01
-20.966	2.940E+01	2.880E+01
-20.965	2.940E+01	2.880E+01
-20.964	2.950E+01	2.890E+01
-20.963	2.960E+01	2.900E+01
-20.962	2.970E+01	2.930E+01
-20.961	2.990E+01	2.940E+01
-20.960	3.000E+01	2.950E+01
-20.959	3.010E+01	2.960E+01
-20.958	3.020E+01	2.980E+01
-20.957	3.050E+01	3.000E+01
-20.956	3.080E+01	3.020E+01
-20.955	3.100E+01	3.060E+01
-20.954	3.140E+01	3.080E+01
-20.953	3.160E+01	3.110E+01
-20.952	3.190E+01	3.130E+01
-20.951	3.250E+01	3.190E+01
-20.950	3.340E+01	3.280E+01
-20.949	3.410E+01	3.350E+01
-20.948	3.500E+01	3.430E+01
-20.947	3.570E+01	3.510E+01
-20.946	3.660E+01	3.590E+01
-20.945	3.780E+01	3.720E+01
-20.944	3.920E+01	3.850E+01
-20.943	4.040E+01	3.970E+01
-20.942	4.180E+01	4.110E+01
-20.941	4.890E+01	4.810E+01
-20.940	5.720E+01	5.630E+01
-20.939	5.320E+01	5.230E+01
-20.938	4.920E+01	4.830E+01
-20.937	4.520E+01	4.440E+01
-20.936	4.260E+01	4.190E+01
-20.935	4.530E+01	4.450E+01
-20.934	4.540E+01	4.460E+01
-20.933	3.969E+01	3.892E+01
-20.932	3.385E+01	3.321E+01
-20.931	2.802E+01	2.749E+01
-20.930	2.218E+01	2.178E+01
-20.929	1.561E+01	1.532E+01
-20.928	1.372E+01	1.349E+01
-20.927	1.280E+01	1.258E+01
-20.926	1.195E+01	1.174E+01
-20.925	1.169E+01	1.149E+01
-20.924	1.144E+01	1.125E+01
-20.923	1.126E+01	1.107E+01
-20.922	1.106E+01	1.087E+01
-20.921	1.115E+01	1.096E+01
-20.920	1.185E+01	1.164E+01
-20.919	1.287E+01	1.266E+01
-20.918	1.426E+01	1.401E+01
-20.917	1.570E+01	1.543E+01
-20.916	1.712E+01	1.681E+01
-20.915	1.591E+01	1.564E+01
-20.914	1.753E+01	1.723E+01
-20.913	1.914E+01	1.888E+01
-20.912	2.082E+01	2.046E+01
-20.911	2.240E+01	2.200E+01
-20.910	2.410E+01	2.370E+01
-20.909	2.277E+01	2.241E+01
-20.908	2.453E+01	2.406E+01
-20.907	2.620E+01	2.580E+01
-20.906	2.800E+01	2.750E+01
-20.905	2.960E+01	2.910E+01
-20.904	3.140E+01	3.090E+01
-20.903	3.310E+01	3.250E+01
-20.902	3.480E+01	3.420E+01
-20.901	3.650E+01	3.590E+01
-20.900	3.630E+01	3.580E+01
-20.899	3.610E+01	3.550E+01
-20.898	3.590E+01	3.520E+01
-20.897	3.560E+01	3.500E+01
-20.896	3.540E+01	3.480E+01
-20.895	3.910E+01	3.840E+01
-20.894	3.770E+01	3.710E+01
-20.893	3.640E+01	3.580E+01
-20.892	3.530E+01	3.460E+01
-20.891	3.430E+01	3.360E+01
-20.890	3.350E+01	3.280E+01
-20.889	3.720E+01	3.650E+01
-20.888	3.750E+01	3.680E+01
-20.887	3.780E+01	3.710E+01
-20.886	3.830E+01	3.770E+01
-20.885	3.770E+01	3.700E+01
-20.884	3.740E+01	3.670E+01
-20.883	3.700E+01	3.640E+01
-20.882	3.670E+01	3.610E+01
-20.881	3.720E+01	3.660E+01
-20.880	3.780E+01	3.720E+01
-20.879	3.840E+01	3.770E+01
-20.878	3.680E+01	3.620E+01
-20.877	3.530E+01	3.470E+01
-20.876	3.580E+01	3.520E+01
-20.875	3.490E+01	3.420E+01
-20.874	3.380E+01	3.320E+01
-20.873	3.290E+01	3.230E+01
-20.872	3.180E+01	3.130E+01
-20.871	3.080E+01	3.030E+01
-20.870	3.210E+01	3.160E+01
-20.869	3.180E+01	3.130E+01
-20.868	3.150E+01	3.090E+01
-20.867	3.110E+01	3.050E+01
-20.866	3.090E+01	3.030E+01
-20.865	3.080E+01	3.020E+01
-20.864	3.070E+01	3.020E+01
-20.863	3.070E+01	3.020E+01
-20.862	3.070E+01	3.010E+01
-20.861	2.750E+01	2.700E+01
-20.860	2.760E+01	2.700E+01
-20.859	2.780E+01	2.730E+01
-20.858	2.810E+01	2.770E+01
-20.857	2.850E+01	2.800E+01
-20.856	2.880E+01	2.830E+01
-20.855	2.600E+01	2.550E+01
-20.854	2.630E+01	2.580E+01
-20.853	2.670E+01	2.620E+01
-20.852	2.710E+01	2.660E+01
-20.851	2.740E+01	2.700E+01
-20.850	2.780E+01	2.730E+01
-20.849	2.810E+01	2.770E+01
-20.848	2.850E+01	2.800E+01
-20.847	2.700E+01	2.660E+01
-20.846	2.730E+01	2.680E+01
-20.845	2.760E+01	2.710E+01
-20.844	2.780E+01	2.740E+01
-20.843	2.810E+01	2.770E+01
-20.842	2.840E+01	2.790E+01
-20.841	2.670E+01	2.630E+01
-20.840	2.680E+01	2.630E+01
-20.839	2.680E+01	2.620E+01
-20.838	2.670E+01	2.630E+01
-20.837	2.680E+01	2.630E+01
-20.836	3.050E+01	3.000E+01
-20.835	3.140E+01	3.090E+01
-20.834	3.230E+01	3.170E+01
-20.833	3.220E+01	3.160E+01
-20.832	3.170E+01	3.110E+01
-20.831	3.420E+01	3.360E+01
-20.830	3.450E+01	3.390E+01
-20.829	3.480E+01	3.420E+01
-20.828	3.520E+01	3.450E+01
-20.827	3.450E+01	3.390E+01
-20.826	3.400E+01	3.340E+01
-20.825	3.320E+01	3.260E+01
-20.824	3.230E+01	3.180E+01
-20.823	3.150E+01	3.100E+01
-20.822	3.070E+01	3.010E+01
-20.821	3.070E+01	3.010E+01
-20.820	3.030E+01	2.980E+01
-20.819	2.990E+01	2.940E+01
-20.818	2.950E+01	2.890E+01
-20.817	2.910E+01	2.860E+01
-20.816	2.890E+01	2.840E+01
-20.815	2.900E+01	2.840E+01
-20.814	2.900E+01	2.850E+01
-20.813	2.910E+01	2.860E+01
-20.812	2.920E+01	2.860E+01
-20.811	2.920E+01	2.870E+01
-20.810	2.930E+01	2.880E+01
-20.809	2.950E+01	2.900E+01
-20.808	2.970E+01	2.910E+01
-20.807	4.950E+01	4.860E+01
-20.806	3.640E+01	3.590E+01
-20.805	2.960E+01	2.900E+01
-20.804	2.930E+01	2.890E+01
-20.803	2.920E+01	2.860E+01
-20.802	2.900E+01	2.860E+01
-20.801	4.750E+01	4.660E+01
-20.800	2.850E+01	2.800E+01
-20.799	2.810E+01	2.750E+01
-20.798	2.750E+01	2.710E+01
-20.797	2.700E+01	2.660E+01
-20.796	2.670E+01	2.610E+01
-20.795	2.640E+01	2.590E+01
-20.794	2.620E+01	2.560E+01
-20.793	2.600E+01	2.540E+01
-20.792	2.570E+01	2.530E+01
-20.791	2.550E+01	2.510E+01
-20.790	2.560E+01	2.520E+01
-20.789	2.570E+01	2.530E+01
-20.788	2.600E+01	2.550E+01
-20.787	2.620E+01	2.580E+01
-20.786	2.670E+01	2.620E+01
-20.785	2.720E+01	2.660E+01
-20.784	2.770E+01	2.720E+01
-20.783	2.850E+01	2.800E+01
-20.782	2.950E+01	2.900E+01
-20.781	3.050E+01	3.000E+01
-20.780	3.160E+01	3.100E+01
-20.779	3.250E+01	3.200E+01
-20.778	3.810E+01	3.750E+01
-20.777	3.550E+01	3.480E+01
-20.776	3.580E+01	3.520E+01
-20.775	3.610E+01	3.550E+01
-20.774	3.660E+01	3.590E+01
-20.773	3.690E+01	3.630E+01
-20.772	3.850E+01	3.790E+01
-20.771	3.820E+01	3.740E+01
-20.770	3.780E+01	3.710E+01
-20.769	3.730E+01	3.670E+01
-20.768	4.010E+01	3.940E+01
-20.767	3.830E+01	3.760E+01
-20.766	3.670E+01	3.600E+01
-20.765	3.530E+01	3.470E+01
-20.764	3.390E+01	3.340E+01
-20.763	3.300E+01	3.240E+01
-20.762	3.490E+01	3.420E+01
-20.761	3.350E+01	3.300E+01
-20.760	3.260E+01	3.200E+01
-20.759	3.160E+01	3.100E+01
-20.758	3.060E+01	3.010E+01
-20.757	2.990E+01	2.940E+01
-20.756	2.980E+01	2.920E+01
-20.755	2.960E+01	2.920E+01
-20.754	2.950E+01	2.900E+01
-20.753	2.940E+01	2.880E+01
-20.752	2.920E+01	2.880E+01
-20.751	2.910E+01	2.860E+01
-20.750	2.900E+01	2.840E+01
-20.749	2.880E+01	2.840E+01
-20.748	2.810E+01	2.760E+01
-20.747	2.800E+01	2.740E+01
-20.746	2.780E+01	2.730E+01
-20.745	2.770E+01	2.710E+01
-20.744	2.750E+01	2.690E+01
-20.743	2.730E+01	2.690E+01
-20.742	2.670E+01	2.630E+01
-20.741	2.670E+01	2.620E+01
-20.740	2.670E+01	2.610E+01
-20.739	2.650E+01	2.610E+01
-20.738	3.260E+01	3.200E+01
-20.737	3.150E+01	3.100E+01
-20.736	3.030E+01	2.980E+01
-20.735	2.920E+01	2.870E+01
-20.734	2.800E+01	2.760E+01
-20.733	3.420E+01	3.370E+01
-20.732	3.210E+01	3.150E+01
-20.731	3.080E+01	3.020E+01
-20.730	2.950E+01	2.890E+01
-20.729	2.820E+01	2.770E+01
-20.728	2.870E+01	2.820E+01
-20.727	2.800E+01	2.750E+01
-20.726	2.860E+01	2.810E+01
-20.725	2.940E+01	2.890E+01
-20.724	3.000E+01	2.950E+01
-20.723	3.070E+01	3.020E+01
-20.722	3.320E+01	3.260E+01
-20.721	3.450E+01	3.390E+01
-20.720	3.580E+01	3.520E+01
-20.719	3.170E+01	3.120E+01
-20.718	3.200E+01	3.150E+01
-20.717	3.230E+01	3.180E+01
-20.716	3.260E+01	3.200E+01
-20.715	3.320E+01	3.260E+01
-20.714	3.390E+01	3.330E+01
-20.713	2.860E+01	2.810E+01
-20.712	2.820E+01	2.770E+01
-20.711	2.780E+01	2.730E+01
-20.710	2.740E+01	2.700E+01
-20.709	2.740E+01	2.700E+01
-20.708	2.740E+01	2.700E+01
-20.707	2.770E+01	2.720E+01
-20.706	2.810E+01	2.760E+01
-20.705	2.840E+01	2.800E+01
-20.704	2.860E+01	2.810E+01
-20.703	2.860E+01	2.810E+01
-20.702	2.870E+01	2.820E+01
-20.701	2.910E+01	2.850E+01
-20.700	2.940E+01	2.880E+01
-20.699	2.970E+01	2.920E+01
-20.698	2.980E+01	2.920E+01
-20.697	2.980E+01	2.920E+01
-20.696	2.980E+01	2.920E+01
-20.695	2.980E+01	2.920E+01
-20.694	2.980E+01	2.920E+01
-20.693	2.980E+01	2.920E+01
-20.692	2.980E+01	2.920E+01
-20.691	2.970E+01	2.920E+01
-20.690	2.970E+01	2.920E+01
-20.689	4.360E+01	4.280E+01
-20.688	2.890E+01	2.840E+01
-20.687	2.900E+01	2.840E+01
-20.686	2.900E+01	2.840E+01
-20.685	2.890E+01	2.840E+01
-20.684	3.070E+01	3.020E+01
-20.683	3.260E+01	3.210E+01
-20.682	3.390E+01	3.340E+01
-20.681	3.590E+01	3.530E+01
-20.680	3.780E+01	3.720E+01
-20.679	2.790E+01	2.750E+01
-20.678	2.980E+01	2.930E+01
-20.677	3.220E+01	3.160E+01
-20.676	3.460E+01	3.390E+01
-20.675	3.690E+01	3.630E+01
-20.674	2.780E+01	2.730E+01
-20.673	2.790E+01	2.740E+01
-20.672	2.790E+01	2.740E+01
-20.671	2.800E+01	2.750E+01
-20.670	2.800E+01	2.750E+01
-20.669	2.810E+01	2.770E+01
-20.668	2.820E+01	2.770E+01
-20.667	2.840E+01	2.780E+01
-20.666	2.850E+01	2.790E+01
-20.665	2.850E+01	2.800E+01
-20.664	2.870E+01	2.820E+01
-20.663	2.880E+01	2.830E+01
-20.662	2.900E+01	2.850E+01
-20.661	2.920E+01	2.860E+01
-20.660	2.930E+01	2.880E+01
-20.659	2.950E+01	2.890E+01
-20.658	2.960E+01	2.910E+01
-20.657	2.970E+01	2.920E+01
-20.656	2.970E+01	2.910E+01
-20.655	2.960E+01	2.910E+01
-20.654	2.950E+01	2.900E+01
-20.653	2.940E+01	2.890E+01
-20.652	2.940E+01	2.880E+01
-20.651	2.920E+01	2.870E+01
-20.650	2.900E+01	2.850E+01
-20.649	2.890E+01	2.830E+01
-20.648	2.870E+01	2.830E+01
-20.647	2.870E+01	2.810E+01
-20.646	2.860E+01	2.810E+01
-20.645	2.850E+01	2.800E+01
-20.644	2.850E+01	2.790E+01
-20.643	2.850E+01	2.810E+01
-20.642	2.870E+01	2.810E+01
-20.641	2.850E+01	2.810E+01
-20.640	2.940E+01	2.880E+01
-20.639	2.940E+01	2.890E+01
-20.638	2.950E+01	2.900E+01
-20.637	2.960E+01	2.900E+01
-20.636	2.960E+01	2.910E+01
-20.635	2.950E+01	2.900E+01
-20.634	3.040E+01	2.980E+01
-20.633	3.830E+01	3.760E+01
-20.632	4.990E+01	4.900E+01
-20.631	4.300E+01	4.220E+01
-20.630	3.190E+01	3.130E+01
-20.629	3.460E+01	3.400E+01
-20.628	3.730E+01	3.660E+01
-20.627	3.990E+01	3.930E+01
-20.626	2.970E+01	2.920E+01
-20.625	2.960E+01	2.900E+01
-20.624	1.093E+02	1.073E+02
-20.623	3.020E+01	2.960E+01
-20.622	3.030E+01	2.980E+01
-20.621	3.050E+01	3.000E+01
-20.620	3.110E+01	3.050E+01
-20.619	3.140E+01	3.080E+01
-20.618	3.200E+01	3.140E+01
-20.617	3.200E+01	3.140E+01
-20.616	3.210E+01	3.150E+01
-20.615	3.270E+01	3.210E+01
-20.614	3.310E+01	3.250E+01
-20.613	3.330E+01	3.270E+01
-20.612	3.330E+01	3.270E+01
-20.611	3.320E+01	3.260E+01
-20.610	3.310E+01	3.250E+01
-20.609	3.320E+01	3.260E+01
-20.608	3.340E+01	3.280E+01
-20.607	3.360E+01	3.300E+01
-20.606	3.410E+01	3.350E+01
-20.605	3.520E+01	3.460E+01
-20.604	3.630E+01	3.560E+01
-20.603	3.750E+01	3.680E+01
-20.602	3.870E+01	3.800E+01
-20.601	3.990E+01	3.920E+01
-20.600	4.120E+01	4.030E+01
-20.599	4.280E+01	4.200E+01
-20.598	4.470E+01	4.380E+01
-20.597	4.420E+01	4.350E+01
-20.596	4.390E+01	4.310E+01
-20.595	4.360E+01	4.280E+01
-20.594	4.310E+01	4.240E+01
-20.593	4.280E+01	4.210E+01
-20.592	4.120E+01	4.040E+01
-20.591	3.890E+01	3.820E+01
-20.590	3.720E+01	3.650E+01
-20.589	3.550E+01	3.480E+01
-20.588	3.380E+01	3.310E+01
-20.587	3.200E+01	3.140E+01
-20.586	3.030E+01	2.970E+01
-20.585	2.850E+01	2.800E+01
-20.584	2.750E+01	2.700E+01
-20.583	2.670E+01	2.620E+01
-20.582	2.830E+01	2.770E+01
-20.581	2.710E+01	2.650E+01
-20.580	2.590E+01	2.540E+01
-20.579	2.470E+01	2.430E+01
-20.578	2.350E+01	2.310E+01
-20.577	2.230E+01	2.195E+01
-20.576	2.342E+01	2.305E+01
-20.575	2.200E+01	2.164E+01
-20.574	2.063E+01	2.028E+01
-20.573	1.926E+01	1.892E+01
-20.572	2.540E+01	2.490E+01
-20.571	2.290E+01	2.253E+01
-20.570	2.078E+01	2.041E+01
-20.569	1.885E+01	1.860E+01
-20.568	2.228E+01	2.192E+01
-20.567	2.143E+01	2.107E+01
-20.566	2.260E+01	2.220E+01
-20.565	2.400E+01	2.366E+01
-20.564	2.583E+01	2.546E+01
-20.563	2.771E+01	2.724E+01
-20.562	1.879E+01	1.843E+01
-20.561	1.897E+01	1.862E+01
-20.560	2.134E+01	2.097E+01
-20.559	2.370E+01	2.323E+01
-20.558	2.605E+01	2.559E+01
-20.557	2.841E+01	2.795E+01
-20.556	1.836E+01	1.801E+01
-20.555	1.769E+01	1.737E+01
-20.554	1.700E+01	1.669E+01
-20.553	1.630E+01	1.602E+01
-20.552	1.619E+01	1.590E+01
-20.551	1.657E+01	1.627E+01
-20.550	1.695E+01	1.665E+01
-20.549	1.732E+01	1.701E+01
-20.548	1.773E+01	1.740E+01
-20.547	1.871E+01	1.838E+01
-20.546	2.056E+01	2.012E+01
-20.545	2.248E+01	2.213E+01
-20.544	2.449E+01	2.402E+01
-20.543	2.650E+01	2.602E+01
-20.542	3.070E+01	3.010E+01
-20.541	3.280E+01	3.230E+01
-20.540	3.510E+01	3.450E+01
-20.539	3.640E+01	3.570E+01
-20.538	3.700E+01	3.630E+01
-20.537	3.770E+01	3.710E+01
-20.536	4.040E+01	3.980E+01
-20.535	4.090E+01	4.010E+01
-20.534	4.120E+01	4.040E+01
-20.533	4.020E+01	3.940E+01
-20.532	3.890E+01	3.820E+01
-20.531	3.770E+01	3.700E+01
-20.530	3.640E+01	3.580E+01
-20.529	3.520E+01	3.450E+01
-20.528	3.400E+01	3.340E+01
-20.527	3.330E+01	3.270E+01
-20.526	3.250E+01	3.190E+01
-20.525	3.170E+01	3.120E+01
-20.524	3.090E+01	3.030E+01
-20.523	3.030E+01	2.970E+01
-20.522	3.020E+01	2.960E+01
-20.521	3.010E+01	2.960E+01
-20.520	3.000E+01	2.950E+01
-20.519	3.000E+01	2.940E+01
-20.518	2.990E+01	2.930E+01
-20.517	2.960E+01	2.900E+01
-20.516	2.960E+01	2.900E+01
-20.515	2.960E+01	2.920E+01
-20.514	2.970E+01	2.920E+01
-20.513	2.980E+01	2.920E+01
-20.512	2.950E+01	2.890E+01
-20.511	2.840E+01	2.800E+01
-20.510	3.340E+01	3.280E+01
-20.509	3.930E+01	3.850E+01
-20.508	4.170E+01	4.100E+01
-20.507	4.050E+01	3.980E+01
-20.506	3.950E+01	3.870E+01
-20.505	3.830E+01	3.760E+01
-20.504	3.800E+01	3.730E+01
-20.503	3.920E+01	3.850E+01
-20.502	4.430E+01	4.350E+01
-20.501	4.880E+01	4.800E+01
-20.500	4.610E+01	4.530E+01
-20.499	4.560E+01	4.480E+01
-20.498	4.520E+01	4.430E+01
-20.497	3.950E+01	3.870E+01
-20.496	3.680E+01	3.610E+01
-20.495	3.450E+01	3.380E+01
-20.494	3.200E+01	3.150E+01
-20.493	3.070E+01	3.020E+01
-20.492	3.060E+01	3.000E+01
-20.491	3.050E+01	3.000E+01
-20.490	3.050E+01	3.000E+01
-20.489	3.060E+01	3.000E+01
-20.488	3.060E+01	3.000E+01
-20.487	3.080E+01	3.030E+01
-20.486	3.110E+01	3.050E+01
-20.485	3.130E+01	3.070E+01
-20.484	2.890E+01	2.830E+01
-20.483	2.900E+01	2.850E+01
-20.482	2.910E+01	2.860E+01
-20.481	2.920E+01	2.870E+01
-20.480	2.930E+01	2.870E+01
-20.479	2.940E+01	2.880E+01
-20.478	2.690E+01	2.640E+01
-20.477	2.690E+01	2.630E+01
-20.476	2.680E+01	2.630E+01
-20.475	2.680E+01	2.630E+01
-20.474	2.620E+01	2.580E+01
-20.473	2.620E+01	2.580E+01
-20.472	2.620E+01	2.570E+01
-20.471	2.630E+01	2.570E+01
-20.470	2.630E+01	2.580E+01
-20.469	2.630E+01	2.580E+01
-20.468	2.580E+01	2.530E+01
-20.467	2.590E+01	2.540E+01
-20.466	2.600E+01	2.560E+01
-20.465	2.620E+01	2.570E+01
-20.464	2.630E+01	2.580E+01
-20.463	2.640E+01	2.590E+01
-20.462	2.650E+01	2.610E+01
-20.461	2.670E+01	2.630E+01
-20.460	2.690E+01	2.650E+01
-20.459	2.720E+01	2.670E+01
-20.458	2.750E+01	2.690E+01
-20.457	2.770E+01	2.710E+01
-20.456	2.790E+01	2.740E+01
-20.455	2.810E+01	2.760E+01
-20.454	2.830E+01	2.780E+01
-20.453	2.850E+01	2.800E+01
-20.452	2.870E+01	2.820E+01
-20.451	2.890E+01	2.840E+01
-20.450	2.910E+01	2.860E+01
-20.449	2.930E+01	2.870E+01
-20.448	2.950E+01	2.890E+01
-20.447	2.960E+01	2.910E+01
-20.446	2.980E+01	2.930E+01
-20.445	3.000E+01	2.960E+01
-20.444	3.200E+01	3.130E+01
-20.443	3.390E+01	3.320E+01
-20.442	3.580E+01	3.510E+01
-20.441	3.530E+01	3.460E+01
-20.440	3.430E+01	3.370E+01
-20.439	3.450E+01	3.390E+01
-20.438	3.660E+01	3.580E+01
-20.437	3.630E+01	3.560E+01
-20.436	3.450E+01	3.390E+01
-20.435	3.350E+01	3.290E+01
-20.434	3.490E+01	3.420E+01
-20.433	3.390E+01	3.330E+01
-20.432	3.280E+01	3.220E+01
-20.431	3.190E+01	3.130E+01
-20.430	3.160E+01	3.100E+01
-20.429	3.160E+01	3.100E+01
-20.428	3.440E+01	3.370E+01
-20.427	3.470E+01	3.400E+01
-20.426	3.500E+01	3.430E+01
-20.425	3.930E+01	3.860E+01
-20.424	3.890E+01	3.820E+01
-20.423	3.880E+01	3.810E+01
-20.422	3.870E+01	3.790E+01
-20.421	3.860E+01	3.790E+01
-20.420	3.850E+01	3.780E+01
-20.419	4.190E+01	4.100E+01
-20.418	4.070E+01	3.990E+01
-20.417	3.950E+01	3.880E+01
-20.416	3.830E+01	3.770E+01
-20.415	3.720E+01	3.650E+01
-20.414	3.610E+01	3.540E+01
-20.413	3.490E+01	3.440E+01
-20.412	3.390E+01	3.330E+01
-20.411	3.280E+01	3.230E+01
-20.410	3.210E+01	3.150E+01
-20.409	3.140E+01	3.080E+01
-20.408	3.080E+01	3.020E+01
-20.407	3.020E+01	2.960E+01
-20.406	2.960E+01	2.910E+01
-20.405	3.130E+01	3.080E+01
-20.404	3.090E+01	3.040E+01
-20.403	3.050E+01	2.990E+01
-20.402	3.010E+01	2.950E+01
-20.401	2.970E+01	2.910E+01
-20.400	3.190E+01	3.130E+01
-20.399	3.130E+01	3.080E+01
-20.398	3.080E+01	3.030E+01
-20.397	3.030E+01	2.970E+01
-20.396	2.780E+01	2.730E+01
-20.395	2.720E+01	2.680E+01
-20.394	2.680E+01	2.630E+01
-20.393	2.640E+01	2.590E+01
-20.392	2.600E+01	2.550E+01
-20.391	2.560E+01	2.520E+01
-20.390	2.350E+01	2.310E+01
-20.389	2.330E+01	2.290E+01
-20.388	2.320E+01	2.270E+01
-20.387	2.300E+01	2.260E+01
-20.386	2.290E+01	2.250E+01
-20.385	2.280E+01	2.240E+01
-20.384	2.280E+01	2.240E+01
-20.383	2.290E+01	2.240E+01
-20.382	2.290E+01	2.250E+01
-20.381	2.290E+01	2.250E+01
-20.380	2.290E+01	2.250E+01
-20.379	2.310E+01	2.270E+01
-20.378	2.330E+01	2.290E+01
-20.377	2.340E+01	2.300E+01
-20.376	2.350E+01	2.300E+01
-20.375	2.380E+01	2.340E+01
-20.374	2.430E+01	2.390E+01
-20.373	2.480E+01	2.430E+01
-20.372	2.520E+01	2.480E+01
-20.371	2.570E+01	2.520E+01
-20.370	2.590E+01	2.540E+01
-20.369	2.640E+01	2.590E+01
-20.368	2.690E+01	2.650E+01
-20.367	2.750E+01	2.700E+01
-20.366	2.810E+01	2.750E+01
-20.365	2.860E+01	2.810E+01
-20.364	2.910E+01	2.860E+01
-20.363	2.970E+01	2.920E+01
-20.362	3.020E+01	2.960E+01
-20.361	3.070E+01	3.010E+01
-20.360	3.120E+01	3.060E+01
-20.359	3.170E+01	3.120E+01
-20.358	3.220E+01	3.160E+01
-20.357	3.270E+01	3.210E+01
-20.356	3.010E+01	2.950E+01
-20.355	3.080E+01	3.020E+01
-20.354	3.230E+01	3.170E+01
-20.353	3.380E+01	3.310E+01
-20.352	3.250E+01	3.180E+01
-20.351	3.270E+01	3.210E+01
-20.350	3.270E+01	3.200E+01
-20.349	3.380E+01	3.320E+01
-20.348	3.500E+01	3.430E+01
-20.347	3.370E+01	3.310E+01
-20.346	3.420E+01	3.360E+01
-20.345	3.440E+01	3.380E+01
-20.344	3.460E+01	3.400E+01
-20.343	3.480E+01	3.410E+01
-20.342	3.490E+01	3.430E+01
-20.341	3.260E+01	3.200E+01
-20.340	3.260E+01	3.200E+01
-20.339	3.280E+01	3.220E+01
-20.338	3.280E+01	3.220E+01
-20.337	3.570E+01	3.500E+01
-20.336	3.560E+01	3.500E+01
-20.335	3.550E+01	3.480E+01
-20.334	3.530E+01	3.470E+01
-20.333	3.510E+01	3.450E+01
-20.332	3.510E+01	3.440E+01
-20.331	3.810E+01	3.740E+01
-20.330	3.780E+01	3.700E+01
-20.329	3.740E+01	3.670E+01
-20.328	3.700E+01	3.640E+01
-20.327	3.400E+01	3.350E+01
-20.326	3.360E+01	3.300E+01
-20.325	3.310E+01	3.250E+01
-20.324	3.270E+01	3.210E+01
-20.323	3.230E+01	3.160E+01
-20.322	2.920E+01	2.870E+01
-20.321	2.860E+01	2.810E+01
-20.320	2.800E+01	2.760E+01
-20.319	2.770E+01	2.730E+01
-20.318	2.760E+01	2.700E+01
-20.317	2.770E+01	2.710E+01
-20.316	2.770E+01	2.710E+01
-20.315	2.760E+01	2.720E+01
-20.314	2.790E+01	2.750E+01
-20.313	2.840E+01	2.800E+01
-20.312	2.890E+01	2.850E+01
-20.311	2.980E+01	2.930E+01
-20.310	3.040E+01	2.980E+01
-20.309	3.090E+01	3.030E+01
-20.308	3.140E+01	3.080E+01
-20.307	3.200E+01	3.140E+01
-20.306	3.250E+01	3.190E+01
-20.305	3.320E+01	3.250E+01
-20.304	3.370E+01	3.300E+01
-20.303	3.420E+01	3.360E+01
-20.302	3.470E+01	3.410E+01
-20.301	3.530E+01	3.470E+01
-20.300	3.580E+01	3.520E+01
-20.299	3.640E+01	3.580E+01
-20.298	3.340E+01	3.270E+01
-20.297	3.360E+01	3.300E+01
-20.296	3.380E+01	3.320E+01
-20.295	3.410E+01	3.340E+01
-20.294	3.440E+01	3.380E+01
-20.293	3.470E+01	3.400E+01
-20.292	3.170E+01	3.110E+01
-20.291	3.170E+01	3.110E+01
-20.290	3.170E+01	3.110E+01
-20.289	3.170E+01	3.110E+01
-20.288	3.580E+01	3.510E+01
-20.287	3.530E+01	3.470E+01
-20.286	3.490E+01	3.430E+01
-20.285	3.450E+01	3.390E+01
-20.284	3.400E+01	3.340E+01
-20.283	3.800E+01	3.730E+01
-20.282	3.700E+01	3.630E+01
-20.281	3.610E+01	3.550E+01
-20.280	3.520E+01	3.450E+01
-20.279	3.430E+01	3.370E+01
-20.278	3.330E+01	3.270E+01
-20.277	3.280E+01	3.220E+01
-20.276	3.240E+01	3.180E+01
-20.275	3.190E+01	3.130E+01
-20.274	3.110E+01	3.050E+01
-20.273	2.950E+01	2.890E+01
-20.272	2.920E+01	2.860E+01