# E (eV)   ldos(E)   pdos(E)   
 -21.739  0.000E+00  0.000E+00
 -21.738  0.000E+00  0.000E+00
 -21.737  0.000E+00  0.000E+00
 -21.736  0.000E+00  0.000E+00
 -21.735  0.000E+00  0.000E+00
 -21.734  0.000E+00  0.000E+00
 -21.733  0.000E+00  0.000E+00
 -21.732  0.000E+00  0.000E+00
 -21.731  0.000E+00  0.000E+00
 -21.730  0.000E+00  0.000E+00
 -21.729  0.000E+00  0.000E+00
 -21.728  0.000E+00  0.000E+00
 -21.727  0.000E+00  0.000E+00
 -21.726  0.000E+00  0.000E+00
 -21.725  0.000E+00  0.000E+00
 -21.724  0.000E+00  0.000E+00
 -21.723  0.000E+00  0.000E+00
 -21.722  0.000E+00  0.000E+00
 -21.721  0.000E+00  0.000E+00
 -21.720  0.000E+00  0.000E+00
 -21.719  0.000E+00  0.000E+00
 -21.718  0.000E+00  0.000E+00
 -21.717  0.000E+00  0.000E+00
 -21.716  0.000E+00  0.000E+00
 -21.715  0.000E+00  0.000E+00
 -21.714  0.000E+00  0.000E+00
 -21.713  0.000E+00  0.000E+00
 -21.712  0.000E+00  0.000E+00
 -21.711  0.000E+00  0.000E+00
 -21.710  0.000E+00  0.000E+00
 -21.709  0.000E+00  0.000E+00
 -21.708  0.000E+00  0.000E+00
 -21.707  0.000E+00  0.000E+00
 -21.706  0.000E+00  0.000E+00
 -21.705  0.000E+00  0.000E+00
 -21.704  0.000E+00  0.000E+00
 -21.703  0.000E+00  0.000E+00
 -21.702  0.000E+00  0.000E+00
 -21.701  0.000E+00  0.000E+00
 -21.700  0.000E+00  0.000E+00
 -21.699  0.000E+00  0.000E+00
 -21.698  0.000E+00  0.000E+00
 -21.697  0.000E+00  0.000E+00
 -21.696  0.000E+00  0.000E+00
 -21.695  0.000E+00  0.000E+00
 -21.694  0.000E+00  0.000E+00
 -21.693  0.000E+00  0.000E+00
 -21.692  0.000E+00  0.000E+00
 -21.691  0.000E+00  0.000E+00
 -21.690  0.000E+00  0.000E+00
 -21.689  0.000E+00  0.000E+00
 -21.688  0.000E+00  0.000E+00
 -21.687  0.000E+00  0.000E+00
 -21.686  0.000E+00  0.000E+00
 -21.685  0.000E+00  0.000E+00
 -21.684  0.000E+00  0.000E+00
 -21.683  0.000E+00  0.000E+00
 -21.682  0.000E+00  0.000E+00
 -21.681  0.000E+00  0.000E+00
 -21.680  0.000E+00  0.000E+00
 -21.679  0.000E+00  0.000E+00
 -21.678  0.000E+00  0.000E+00
 -21.677  0.000E+00  0.000E+00
 -21.676  0.000E+00  0.000E+00
 -21.675  0.000E+00  0.000E+00
 -21.674  0.000E+00  0.000E+00
 -21.673  0.000E+00  0.000E+00
 -21.672  0.000E+00  0.000E+00
 -21.671  0.000E+00  0.000E+00
 -21.670  0.000E+00  0.000E+00
 -21.669  0.000E+00  0.000E+00
 -21.668  0.000E+00  0.000E+00
 -21.667  0.000E+00  0.000E+00
 -21.666  0.000E+00  0.000E+00
 -21.665  0.000E+00  0.000E+00
 -21.664  0.000E+00  0.000E+00
 -21.663  0.000E+00  0.000E+00
 -21.662  0.000E+00  0.000E+00
 -21.661  0.000E+00  0.000E+00
 -21.660  0.000E+00  0.000E+00
 -21.659  0.000E+00  0.000E+00
 -21.658  0.000E+00  0.000E+00
 -21.657  0.000E+00  0.000E+00
 -21.656  0.000E+00  0.000E+00
 -21.655  0.000E+00  0.000E+00
 -21.654  0.000E+00  0.000E+00
 -21.653  0.000E+00  0.000E+00
 -21.652  0.000E+00  0.000E+00
 -21.651  0.000E+00  0.000E+00
 -21.650  0.000E+00  0.000E+00
 -21.649  0.000E+00  0.000E+00
 -21.648  0.000E+00  0.000E+00
 -21.647  0.000E+00  0.000E+00
 -21.646  0.000E+00  0.000E+00
 -21.645  0.000E+00  0.000E+00
 -21.644  0.000E+00  0.000E+00
 -21.643  0.000E+00  0.000E+00
 -21.642  0.000E+00  0.000E+00
 -21.641  0.000E+00  0.000E+00
 -21.640  0.000E+00  0.000E+00
 -21.639  0.000E+00  0.000E+00
 -21.638  0.000E+00  0.000E+00
 -21.637  0.000E+00  0.000E+00
 -21.636  0.000E+00  0.000E+00
 -21.635  0.000E+00  0.000E+00
 -21.634  0.000E+00  0.000E+00
 -21.633  0.000E+00  0.000E+00
 -21.632  0.000E+00  0.000E+00
 -21.631  0.000E+00  0.000E+00
 -21.630  0.000E+00  0.000E+00
 -21.629  0.000E+00  0.000E+00
 -21.628  0.000E+00  0.000E+00
 -21.627  0.000E+00  0.000E+00
 -21.626  0.000E+00  0.000E+00
 -21.625  0.000E+00  0.000E+00
 -21.624  0.000E+00  0.000E+00
 -21.623  0.000E+00  0.000E+00
 -21.622  0.000E+00  0.000E+00
 -21.621  0.000E+00  0.000E+00
 -21.620  0.000E+00  0.000E+00
 -21.619  0.000E+00  0.000E+00
 -21.618  0.000E+00  0.000E+00
 -21.617  0.000E+00  0.000E+00
 -21.616  0.000E+00  0.000E+00
 -21.615  0.000E+00  0.000E+00
 -21.614  0.000E+00  0.000E+00
 -21.613  0.000E+00  0.000E+00
 -21.612  0.000E+00  0.000E+00
 -21.611  0.000E+00  0.000E+00
 -21.610  0.000E+00  0.000E+00
 -21.609  0.000E+00  0.000E+00
 -21.608  0.000E+00  0.000E+00
 -21.607  0.000E+00  0.000E+00
 -21.606  0.000E+00  0.000E+00
 -21.605  0.000E+00  0.000E+00
 -21.604  0.000E+00  0.000E+00
 -21.603  0.000E+00  0.000E+00
 -21.602  0.000E+00  0.000E+00
 -21.601  0.000E+00  0.000E+00
 -21.600  0.000E+00  0.000E+00
 -21.599  0.000E+00  0.000E+00
 -21.598  0.000E+00  0.000E+00
 -21.597  0.000E+00  0.000E+00
 -21.596  0.000E+00  0.000E+00
 -21.595  0.000E+00  0.000E+00
 -21.594  0.000E+00  0.000E+00
 -21.593  0.000E+00  0.000E+00
 -21.592  0.000E+00  0.000E+00
 -21.591  0.000E+00  0.000E+00
 -21.590  0.000E+00  0.000E+00
 -21.589  0.000E+00  0.000E+00
 -21.588  0.000E+00  0.000E+00
 -21.587  0.000E+00  0.000E+00
 -21.586  0.000E+00  0.000E+00
 -21.585  0.000E+00  0.000E+00
 -21.584  0.000E+00  0.000E+00
 -21.583  0.000E+00  0.000E+00
 -21.582  0.000E+00  0.000E+00
 -21.581  0.000E+00  0.000E+00
 -21.580  0.000E+00  0.000E+00
 -21.579  0.000E+00  0.000E+00
 -21.578  0.000E+00  0.000E+00
 -21.577  0.000E+00  0.000E+00
 -21.576  0.000E+00  0.000E+00
 -21.575  0.000E+00  0.000E+00
 -21.574  0.000E+00  0.000E+00
 -21.573  0.000E+00  0.000E+00
 -21.572  0.000E+00  0.000E+00
 -21.571  0.000E+00  0.000E+00
 -21.570  0.000E+00  0.000E+00
 -21.569  0.000E+00  0.000E+00
 -21.568  0.000E+00  0.000E+00
 -21.567  0.000E+00  0.000E+00
 -21.566  0.000E+00  0.000E+00
 -21.565  0.000E+00  0.000E+00
 -21.564  0.000E+00  0.000E+00
 -21.563  0.000E+00  0.000E+00
 -21.562  0.000E+00  0.000E+00
 -21.561  0.000E+00  0.000E+00
 -21.560  0.000E+00  0.000E+00
 -21.559  0.000E+00  0.000E+00
 -21.558  0.000E+00  0.000E+00
 -21.557  0.000E+00  0.000E+00
 -21.556  0.000E+00  0.000E+00
 -21.555  0.000E+00  0.000E+00
 -21.554  0.000E+00  0.000E+00
 -21.553  0.000E+00  0.000E+00
 -21.552  0.000E+00  0.000E+00
 -21.551  0.000E+00  0.000E+00
 -21.550  0.000E+00  0.000E+00
 -21.549  0.000E+00  0.000E+00
 -21.548  0.000E+00  0.000E+00
 -21.547  0.000E+00  0.000E+00
 -21.546  0.000E+00  0.000E+00
 -21.545  0.000E+00  0.000E+00
 -21.544  0.000E+00  0.000E+00
 -21.543  0.000E+00  0.000E+00
 -21.542  0.000E+00  0.000E+00
 -21.541  0.000E+00  0.000E+00
 -21.540  0.000E+00  0.000E+00
 -21.539  0.000E+00  0.000E+00
 -21.538  0.000E+00  0.000E+00
 -21.537  0.000E+00  0.000E+00
 -21.536  0.000E+00  0.000E+00
 -21.535  0.000E+00  0.000E+00
 -21.534  0.000E+00  0.000E+00
 -21.533  0.000E+00  0.000E+00
 -21.532  0.000E+00  0.000E+00
 -21.531  0.000E+00  0.000E+00
 -21.530  0.000E+00  0.000E+00
 -21.529  0.000E+00  0.000E+00
 -21.528  0.000E+00  0.000E+00
 -21.527  0.000E+00  0.000E+00
 -21.526  0.000E+00  0.000E+00
 -21.525  0.000E+00  0.000E+00
 -21.524  0.000E+00  0.000E+00
 -21.523  0.000E+00  0.000E+00
 -21.522  0.000E+00  0.000E+00
 -21.521  0.000E+00  0.000E+00
 -21.520  0.000E+00  0.000E+00
 -21.519  0.000E+00  0.000E+00
 -21.518  0.000E+00  0.000E+00
 -21.517  0.000E+00  0.000E+00
 -21.516  0.000E+00  0.000E+00
 -21.515  0.000E+00  0.000E+00
 -21.514  0.000E+00  0.000E+00
 -21.513  0.000E+00  0.000E+00
 -21.512  0.000E+00  0.000E+00
 -21.511  0.000E+00  0.000E+00
 -21.510  0.000E+00  0.000E+00
 -21.509  0.000E+00  0.000E+00
 -21.508  0.000E+00  0.000E+00
 -21.507  0.000E+00  0.000E+00
 -21.506  0.000E+00  0.000E+00
 -21.505  0.000E+00  0.000E+00
 -21.504  0.000E+00  0.000E+00
 -21.503  0.000E+00  0.000E+00
 -21.502  0.000E+00  0.000E+00
 -21.501  0.000E+00  0.000E+00
 -21.500  0.000E+00  0.000E+00
 -21.499  0.000E+00  0.000E+00
 -21.498  0.000E+00  0.000E+00
 -21.497  0.000E+00  0.000E+00
 -21.496  0.000E+00  0.000E+00
 -21.495  0.000E+00  0.000E+00
 -21.494  0.000E+00  0.000E+00
 -21.493  0.000E+00  0.000E+00
 -21.492  0.000E+00  0.000E+00
 -21.491  0.000E+00  0.000E+00
 -21.490  0.000E+00  0.000E+00
 -21.489  0.000E+00  0.000E+00
 -21.488  0.000E+00  0.000E+00
 -21.487  0.000E+00  0.000E+00
 -21.486  0.000E+00  0.000E+00
 -21.485  0.000E+00  0.000E+00
 -21.484  0.000E+00  0.000E+00
 -21.483  0.000E+00  0.000E+00
 -21.482  0.000E+00  0.000E+00
 -21.481  0.000E+00  0.000E+00
 -21.480  0.000E+00  0.000E+00
 -21.479  0.000E+00  0.000E+00
 -21.478  0.000E+00  0.000E+00
 -21.477  0.000E+00  0.000E+00
 -21.476  0.000E+00  0.000E+00
 -21.475  0.000E+00  0.000E+00
 -21.474  0.000E+00  0.000E+00
 -21.473  0.000E+00  0.000E+00
 -21.472  0.000E+00  0.000E+00
 -21.471  0.000E+00  0.000E+00
 -21.470  0.000E+00  0.000E+00
 -21.469  0.000E+00  0.000E+00
 -21.468  0.000E+00  0.000E+00
 -21.467  0.000E+00  0.000E+00
 -21.466  0.000E+00  0.000E+00
 -21.465  0.000E+00  0.000E+00
 -21.464  0.000E+00  0.000E+00
 -21.463  0.000E+00  0.000E+00
 -21.462  0.000E+00  0.000E+00
 -21.461  0.000E+00  0.000E+00
 -21.460  0.000E+00  0.000E+00
 -21.459  0.000E+00  0.000E+00
 -21.458  0.000E+00  0.000E+00
 -21.457  0.000E+00  0.000E+00
 -21.456  0.000E+00  0.000E+00
 -21.455  0.000E+00  0.000E+00
 -21.454  0.000E+00  0.000E+00
 -21.453  0.000E+00  0.000E+00
 -21.452  0.000E+00  0.000E+00
 -21.451  0.000E+00  0.000E+00
 -21.450  0.000E+00  0.000E+00
 -21.449  0.000E+00  0.000E+00
 -21.448  0.000E+00  0.000E+00
 -21.447  0.000E+00  0.000E+00
 -21.446  0.000E+00  0.000E+00
 -21.445  0.000E+00  0.000E+00
 -21.444  0.000E+00  0.000E+00
 -21.443  0.000E+00  0.000E+00
 -21.442  0.000E+00  0.000E+00
 -21.441  0.000E+00  0.000E+00
 -21.440  0.000E+00  0.000E+00
 -21.439  0.000E+00  0.000E+00
 -21.438  0.000E+00  0.000E+00
 -21.437  0.000E+00  0.000E+00
 -21.436  0.000E+00  0.000E+00
 -21.435  0.000E+00  0.000E+00
 -21.434  0.000E+00  0.000E+00
 -21.433  0.000E+00  0.000E+00
 -21.432  0.000E+00  0.000E+00
 -21.431  0.000E+00  0.000E+00
 -21.430  0.000E+00  0.000E+00
 -21.429  0.000E+00  0.000E+00
 -21.428  0.000E+00  0.000E+00
 -21.427  0.000E+00  0.000E+00
 -21.426  0.000E+00  0.000E+00
 -21.425  0.000E+00  0.000E+00
 -21.424  0.000E+00  0.000E+00
 -21.423  0.000E+00  0.000E+00
 -21.422  0.000E+00  0.000E+00
 -21.421  0.000E+00  0.000E+00
 -21.420  0.000E+00  0.000E+00
 -21.419  0.000E+00  0.000E+00
 -21.418  0.000E+00  0.000E+00
 -21.417  0.000E+00  0.000E+00
 -21.416  0.000E+00  0.000E+00
 -21.415  0.000E+00  0.000E+00
 -21.414  0.000E+00  0.000E+00
 -21.413  0.000E+00  0.000E+00
 -21.412  0.000E+00  0.000E+00
 -21.411  0.000E+00  0.000E+00
 -21.410  0.000E+00  0.000E+00
 -21.409  0.000E+00  0.000E+00
 -21.408  0.000E+00  0.000E+00
 -21.407  0.000E+00  0.000E+00
 -21.406  0.000E+00  0.000E+00
 -21.405  0.000E+00  0.000E+00
 -21.404  0.000E+00  0.000E+00
 -21.403  0.000E+00  0.000E+00
 -21.402  0.000E+00  0.000E+00
 -21.401  0.000E+00  0.000E+00
 -21.400  0.000E+00  0.000E+00
 -21.399  0.000E+00  0.000E+00
 -21.398  0.000E+00  0.000E+00
 -21.397  0.000E+00  0.000E+00
 -21.396  0.000E+00  0.000E+00
 -21.395  0.000E+00  0.000E+00
 -21.394  0.000E+00  0.000E+00
 -21.393  0.000E+00  0.000E+00
 -21.392  0.000E+00  0.000E+00
 -21.391  0.000E+00  0.000E+00
 -21.390  0.000E+00  0.000E+00
 -21.389  0.000E+00  0.000E+00
 -21.388  0.000E+00  0.000E+00
 -21.387  0.000E+00  0.000E+00
 -21.386  0.000E+00  0.000E+00
 -21.385  0.000E+00  0.000E+00
 -21.384  0.000E+00  0.000E+00
 -21.383  0.000E+00  0.000E+00
 -21.382  0.000E+00  0.000E+00
 -21.381  0.000E+00  0.000E+00
 -21.380  0.000E+00  0.000E+00
 -21.379  0.000E+00  0.000E+00
 -21.378  0.000E+00  0.000E+00
 -21.377  0.000E+00  0.000E+00
 -21.376  0.000E+00  0.000E+00
 -21.375  0.000E+00  0.000E+00
 -21.374  0.000E+00  0.000E+00
 -21.373  0.000E+00  0.000E+00
 -21.372  0.000E+00  0.000E+00
 -21.371  0.000E+00  0.000E+00
 -21.370  0.000E+00  0.000E+00
 -21.369  0.000E+00  0.000E+00
 -21.368  0.000E+00  0.000E+00
 -21.367  0.000E+00  0.000E+00
 -21.366  0.000E+00  0.000E+00
 -21.365  0.000E+00  0.000E+00
 -21.364  0.000E+00  0.000E+00
 -21.363  0.000E+00  0.000E+00
 -21.362  0.000E+00  0.000E+00
 -21.361  0.000E+00  0.000E+00
 -21.360  0.000E+00  0.000E+00
 -21.359  0.000E+00  0.000E+00
 -21.358  0.000E+00  0.000E+00
 -21.357  0.000E+00  0.000E+00
 -21.356  0.000E+00  0.000E+00
 -21.355  0.000E+00  0.000E+00
 -21.354  0.000E+00  0.000E+00
 -21.353  0.000E+00  0.000E+00
 -21.352  0.000E+00  0.000E+00
 -21.351  0.000E+00  0.000E+00
 -21.350  0.000E+00  0.000E+00
 -21.349  0.000E+00  0.000E+00
 -21.348  0.000E+00  0.000E+00
 -21.347  0.000E+00  0.000E+00
 -21.346  0.000E+00  0.000E+00
 -21.345  0.000E+00  0.000E+00
 -21.344  0.000E+00  0.000E+00
 -21.343  0.000E+00  0.000E+00
 -21.342  0.000E+00  0.000E+00
 -21.341  0.000E+00  0.000E+00
 -21.340  0.000E+00  0.000E+00
 -21.339  0.000E+00  0.000E+00
 -21.338  0.000E+00  0.000E+00
 -21.337  0.000E+00  0.000E+00
 -21.336  0.000E+00  0.000E+00
 -21.335  0.000E+00  0.000E+00
 -21.334  0.000E+00  0.000E+00
 -21.333  0.000E+00  0.000E+00
 -21.332  0.000E+00  0.000E+00
 -21.331  0.000E+00  0.000E+00
 -21.330  0.000E+00  0.000E+00
 -21.329  0.000E+00  0.000E+00
 -21.328  0.000E+00  0.000E+00
 -21.327  0.000E+00  0.000E+00
 -21.326  0.000E+00  0.000E+00
 -21.325  0.000E+00  0.000E+00
 -21.324  0.000E+00  0.000E+00
 -21.323  0.000E+00  0.000E+00
 -21.322  0.000E+00  0.000E+00
 -21.321  0.000E+00  0.000E+00
 -21.320  0.000E+00  0.000E+00
 -21.319  0.000E+00  0.000E+00
 -21.318  0.000E+00  0.000E+00
 -21.317  0.000E+00  0.000E+00
 -21.316  0.000E+00  0.000E+00
 -21.315  0.000E+00  0.000E+00
 -21.314  0.000E+00  0.000E+00
 -21.313  0.000E+00  0.000E+00
 -21.312  0.000E+00  0.000E+00
 -21.311  0.000E+00  0.000E+00
 -21.310  0.000E+00  0.000E+00
 -21.309  0.000E+00  0.000E+00
 -21.308  0.000E+00  0.000E+00
 -21.307  0.000E+00  0.000E+00
 -21.306  0.000E+00  0.000E+00
 -21.305  0.000E+00  0.000E+00
 -21.304  0.000E+00  0.000E+00
 -21.303  0.000E+00  0.000E+00
 -21.302  0.000E+00  0.000E+00
 -21.301  0.000E+00  0.000E+00
 -21.300  0.000E+00  0.000E+00
 -21.299  0.000E+00  0.000E+00
 -21.298  0.000E+00  0.000E+00
 -21.297  0.000E+00  0.000E+00
 -21.296  0.000E+00  0.000E+00
 -21.295  0.000E+00  0.000E+00
 -21.294  0.000E+00  0.000E+00
 -21.293  0.000E+00  0.000E+00
 -21.292  0.000E+00  0.000E+00
 -21.291  0.000E+00  0.000E+00
 -21.290  0.000E+00  0.000E+00
 -21.289  0.000E+00  0.000E+00
 -21.288  0.000E+00  0.000E+00
 -21.287  0.000E+00  0.000E+00
 -21.286  0.000E+00  0.000E+00
 -21.285  0.000E+00  0.000E+00
 -21.284  0.000E+00  0.000E+00
 -21.283  0.000E+00  0.000E+00
 -21.282  0.000E+00  0.000E+00
 -21.281  0.000E+00  0.000E+00
 -21.280  0.000E+00  0.000E+00
 -21.279  0.000E+00  0.000E+00
 -21.278  0.000E+00  0.000E+00
 -21.277  0.000E+00  0.000E+00
 -21.276  0.000E+00  0.000E+00
 -21.275  0.000E+00  0.000E+00
 -21.274  0.000E+00  0.000E+00
 -21.273  0.000E+00  0.000E+00
 -21.272  0.000E+00  0.000E+00
 -21.271  0.000E+00  0.000E+00
 -21.270  0.000E+00  0.000E+00
 -21.269  0.000E+00  0.000E+00
 -21.268  0.000E+00  0.000E+00
 -21.267  0.000E+00  0.000E+00
 -21.266  0.000E+00  0.000E+00
 -21.265  0.000E+00  0.000E+00
 -21.264  0.000E+00  0.000E+00
 -21.263  0.000E+00  0.000E+00
 -21.262  0.000E+00  0.000E+00
 -21.261  0.000E+00  0.000E+00
 -21.260  0.000E+00  0.000E+00
 -21.259  0.000E+00  0.000E+00
 -21.258  0.000E+00  0.000E+00
 -21.257  0.000E+00  0.000E+00
 -21.256  0.000E+00  0.000E+00
 -21.255  0.000E+00  0.000E+00
 -21.254  0.000E+00  0.000E+00
 -21.253  0.000E+00  0.000E+00
 -21.252  0.000E+00  0.000E+00
 -21.251  0.000E+00  0.000E+00
 -21.250  0.000E+00  0.000E+00
 -21.249  0.000E+00  0.000E+00
 -21.248  0.000E+00  0.000E+00
 -21.247  0.000E+00  0.000E+00
 -21.246  0.000E+00  0.000E+00
 -21.245  0.000E+00  0.000E+00
 -21.244  0.180E+01  0.180E+01
 -21.243  0.118E+01  0.118E+01
 -21.242  0.610E+00  0.610E+00
 -21.241  0.418E+00  0.418E+00
 -21.240  0.189E+00  0.189E+00
 -21.239  0.129E+00  0.129E+00
 -21.238  0.926E-01  0.926E-01
 -21.237  0.562E-01  0.562E-01
 -21.236  0.329E-01  0.329E-01
 -21.235  0.259E-01  0.259E-01
 -21.234  0.198E-01  0.198E-01
 -21.233  0.144E-01  0.144E-01
 -21.232  0.989E-02  0.989E-02
 -21.231  0.372E-02  0.372E-02
 -21.230  0.291E-02  0.291E-02
 -21.229  0.219E-02  0.219E-02
 -21.228  0.158E-02  0.158E-02
 -21.227  0.106E-02  0.106E-02
 -21.226  0.650E-03  0.650E-03
 -21.225  0.338E-03  0.338E-03
 -21.224  0.127E-03  0.127E-03
 -21.223  0.175E-04  0.175E-04
 -21.222  0.000E+00  0.000E+00
 -21.221  0.738E-05  0.738E-05
 -21.220  0.562E-04  0.562E-04
 -21.219  0.151E-03  0.151E-03
 -21.218  0.291E-03  0.291E-03
 -21.217  0.477E-03  0.477E-03
 -21.216  0.708E-03  0.708E-03
 -21.215  0.985E-03  0.985E-03
 -21.214  0.131E-02  0.131E-02
 -21.213  0.168E-02  0.168E-02
 -21.212  0.209E-02  0.209E-02
 -21.211  0.255E-02  0.255E-02
 -21.210  0.306E-02  0.306E-02
 -21.209  0.413E-02  0.413E-02
 -21.208  0.508E-02  0.508E-02
 -21.207  0.609E-02  0.609E-02
 -21.206  0.716E-02  0.716E-02
 -21.205  0.831E-02  0.831E-02
 -21.204  0.952E-02  0.952E-02
 -21.203  0.108E-01  0.108E-01
 -21.202  0.121E-01  0.121E-01
 -21.201  0.135E-01  0.135E-01
 -21.200  0.150E-01  0.150E-01
 -21.199  0.166E-01  0.166E-01
 -21.198  0.183E-01  0.183E-01
 -21.197  0.205E-01  0.205E-01
 -21.196  0.229E-01  0.229E-01
 -21.195  0.255E-01  0.255E-01
 -21.194  0.284E-01  0.284E-01
 -21.193  0.312E-01  0.312E-01
 -21.192  0.342E-01  0.342E-01
 -21.191  0.372E-01  0.372E-01
 -21.190  0.403E-01  0.403E-01
 -21.189  0.435E-01  0.435E-01
 -21.188  0.467E-01  0.467E-01
 -21.187  0.501E-01  0.501E-01
 -21.186  0.535E-01  0.535E-01
 -21.185  0.571E-01  0.571E-01
 -21.184  0.607E-01  0.607E-01
 -21.183  0.855E-01  0.855E-01
 -21.182  0.965E-01  0.965E-01
 -21.181  0.108E+00  0.108E+00
 -21.180  0.120E+00  0.120E+00
 -21.179  0.132E+00  0.132E+00
 -21.178  0.144E+00  0.144E+00
 -21.177  0.158E+00  0.158E+00
 -21.176  0.168E+00  0.168E+00
 -21.175  0.172E+00  0.172E+00
 -21.174  0.147E+00  0.147E+00
 -21.173  0.121E+00  0.121E+00
 -21.172  0.937E-01  0.937E-01
 -21.171  0.840E-01  0.840E-01
 -21.170  0.801E-01  0.801E-01
 -21.169  0.763E-01  0.763E-01
 -21.168  0.726E-01  0.726E-01
 -21.167  0.690E-01  0.690E-01
 -21.166  0.653E-01  0.653E-01
 -21.165  0.616E-01  0.616E-01
 -21.164  0.566E-01  0.566E-01
 -21.163  0.508E-01  0.508E-01
 -21.162  0.451E-01  0.451E-01
 -21.161  0.433E-01  0.433E-01
 -21.160  0.416E-01  0.416E-01
 -21.159  0.399E-01  0.399E-01
 -21.158  0.383E-01  0.383E-01
 -21.157  0.367E-01  0.367E-01
 -21.156  0.352E-01  0.352E-01
 -21.155  0.338E-01  0.338E-01
 -21.154  0.325E-01  0.325E-01
 -21.153  0.325E-01  0.325E-01
 -21.152  0.378E-01  0.378E-01
 -21.151  0.461E-01  0.461E-01
 -21.150  0.566E-01  0.566E-01
 -21.149  0.685E-01  0.685E-01
 -21.148  0.822E-01  0.822E-01
 -21.147  0.972E-01  0.972E-01
 -21.146  0.113E+00  0.113E+00
 -21.145  0.130E+00  0.130E+00
 -21.144  0.149E+00  0.149E+00
 -21.143  0.157E+00  0.157E+00
 -21.142  0.168E+00  0.168E+00
 -21.141  0.180E+00  0.180E+00
 -21.140  0.194E+00  0.194E+00
 -21.139  0.212E+00  0.212E+00
 -21.138  0.232E+00  0.232E+00
 -21.137  0.252E+00  0.252E+00
 -21.136  0.274E+00  0.274E+00
 -21.135  0.301E+00  0.301E+00
 -21.134  0.340E+00  0.340E+00
 -21.133  0.373E+00  0.373E+00
 -21.132  0.408E+00  0.408E+00
 -21.131  0.449E+00  0.449E+00
 -21.130  0.496E+00  0.496E+00
 -21.129  0.667E+00  0.667E+00
 -21.128  0.587E+00  0.587E+00
 -21.127  0.577E+00  0.577E+00
 -21.126  0.563E+00  0.563E+00
 -21.125  0.570E+00  0.570E+00
 -21.124  0.520E+00  0.520E+00
 -21.123  0.478E+00  0.478E+00
 -21.122  0.442E+00  0.442E+00
 -21.121  0.408E+00  0.408E+00
 -21.120  0.371E+00  0.371E+00
 -21.119  0.407E+00  0.407E+00
 -21.118  0.472E+00  0.472E+00
 -21.117  0.541E+00  0.541E+00
 -21.116  0.540E+00  0.540E+00
 -21.115  0.387E+00  0.387E+00
 -21.114  0.222E+00  0.222E+00
 -21.113  0.456E-01  0.456E-01
 -21.112  0.000E+00  0.000E+00
 -21.111  0.000E+00  0.000E+00
 -21.110  0.000E+00  0.000E+00
 -21.109  0.000E+00  0.000E+00
 -21.108  0.000E+00  0.000E+00
 -21.107  0.000E+00  0.000E+00
 -21.106  0.000E+00  0.000E+00
 -21.105  0.000E+00  0.000E+00
 -21.104  0.000E+00  0.000E+00
 -21.103  0.000E+00  0.000E+00
 -21.102  0.000E+00  0.000E+00
 -21.101  0.000E+00  0.000E+00
 -21.100  0.000E+00  0.000E+00
 -21.099  0.000E+00  0.000E+00
 -21.098  0.000E+00  0.000E+00
 -21.097  0.000E+00  0.000E+00
 -21.096  0.000E+00  0.000E+00
 -21.095  0.000E+00  0.000E+00
 -21.094  0.000E+00  0.000E+00
 -21.093  0.000E+00  0.000E+00
 -21.092  0.000E+00  0.000E+00
 -21.091  0.000E+00  0.000E+00
 -21.090  0.000E+00  0.000E+00
 -21.089  0.000E+00  0.000E+00
 -21.088  0.000E+00  0.000E+00
 -21.087  0.000E+00  0.000E+00
 -21.086  0.000E+00  0.000E+00
 -21.085  0.000E+00  0.000E+00
 -21.084  0.000E+00  0.000E+00
 -21.083  0.000E+00  0.000E+00
 -21.082  0.000E+00  0.000E+00
 -21.081  0.000E+00  0.000E+00
 -21.080  0.000E+00  0.000E+00
 -21.079  0.000E+00  0.000E+00
 -21.078  0.000E+00  0.000E+00
 -21.077  0.000E+00  0.000E+00
 -21.076  0.000E+00  0.000E+00
 -21.075  0.486E-06  0.486E-06
 -21.074  0.131E+00  0.131E+00
 -21.073  0.516E-01  0.516E-01
 -21.072  0.522E-01  0.522E-01
 -21.071  0.548E-01  0.548E-01
 -21.070  0.593E-01  0.593E-01
 -21.069  0.649E-01  0.649E-01
 -21.068  0.694E-01  0.694E-01
 -21.067  0.733E-01  0.733E-01
 -21.066  0.769E-01  0.769E-01
 -21.065  0.803E-01  0.803E-01
 -21.064  0.835E-01  0.835E-01
 -21.063  0.863E-01  0.863E-01
 -21.062  0.891E-01  0.891E-01
 -21.061  0.928E-01  0.928E-01
 -21.060  0.972E-01  0.972E-01
 -21.059  0.102E+00  0.102E+00
 -21.058  0.109E+00  0.109E+00
 -21.057  0.114E+00  0.114E+00
 -21.056  0.119E+00  0.119E+00
 -21.055  0.124E+00  0.124E+00
 -21.054  0.129E+00  0.129E+00
 -21.053  0.135E+00  0.135E+00
 -21.052  0.142E+00  0.142E+00
 -21.051  0.150E+00  0.150E+00
 -21.050  0.158E+00  0.158E+00
 -21.049  0.166E+00  0.166E+00
 -21.048  0.175E+00  0.175E+00
 -21.047  0.186E+00  0.186E+00
 -21.046  0.200E+00  0.200E+00
 -21.045  0.213E+00  0.213E+00
 -21.044  0.227E+00  0.227E+00
 -21.043  0.241E+00  0.241E+00
 -21.042  0.259E+00  0.259E+00
 -21.041  0.279E+00  0.279E+00
 -21.040  0.300E+00  0.300E+00
 -21.039  0.323E+00  0.323E+00
 -21.038  0.353E+00  0.353E+00
 -21.037  0.410E+00  0.410E+00
 -21.036  0.470E+00  0.470E+00
 -21.035  0.531E+00  0.531E+00
 -21.034  0.140E+01  0.140E+01
 -21.033  0.415E+00  0.415E+00
 -21.032  0.232E+00  0.232E+00
 -21.031  0.268E-01  0.268E-01
 -21.030  0.115E-01  0.115E-01
 -21.029  0.104E-01  0.104E-01
 -21.028  0.936E-02  0.936E-02
 -21.027  0.847E-02  0.847E-02
 -21.026  0.770E-02  0.770E-02
 -21.025  0.705E-02  0.705E-02
 -21.024  0.652E-02  0.652E-02
 -21.023  0.610E-02  0.610E-02
 -21.022  0.580E-02  0.580E-02
 -21.021  0.562E-02  0.562E-02
 -21.020  0.556E-02  0.556E-02
 -21.019  0.562E-02  0.562E-02
 -21.018  0.580E-02  0.580E-02
 -21.017  0.606E-02  0.606E-02
 -21.016  0.632E-02  0.632E-02
 -21.015  0.658E-02  0.658E-02
 -21.014  0.684E-02  0.684E-02
 -21.013  0.712E-02  0.712E-02
 -21.012  0.718E-02  0.718E-02
 -21.011  0.771E-02  0.771E-02
 -21.010  0.832E-02  0.832E-02
 -21.009  0.900E-02  0.900E-02
 -21.008  0.975E-02  0.975E-02
 -21.007  0.106E-01  0.106E-01
 -21.006  0.115E-01  0.115E-01
 -21.005  0.124E-01  0.124E-01
 -21.004  0.134E-01  0.134E-01
 -21.003  0.145E-01  0.145E-01
 -21.002  0.156E-01  0.156E-01
 -21.001  0.167E-01  0.167E-01
 -21.000  0.178E-01  0.178E-01
 -20.999  0.190E-01  0.190E-01
 -20.998  0.202E-01  0.202E-01
 -20.997  0.214E-01  0.214E-01
 -20.996  0.227E-01  0.227E-01
 -20.995  0.240E-01  0.240E-01
 -20.994  0.253E-01  0.253E-01
 -20.993  0.266E-01  0.266E-01
 -20.992  0.280E-01  0.280E-01
 -20.991  0.315E-01  0.315E-01
 -20.990  0.329E-01  0.329E-01
 -20.989  0.346E-01  0.346E-01
 -20.988  0.373E-01  0.373E-01
 -20.987  0.404E-01  0.404E-01
 -20.986  0.435E-01  0.435E-01
 -20.985  0.465E-01  0.465E-01
 -20.984  0.496E-01  0.496E-01
 -20.983  0.528E-01  0.528E-01
 -20.982  0.561E-01  0.561E-01
 -20.981  0.595E-01  0.595E-01
 -20.980  0.630E-01  0.630E-01
 -20.979  0.667E-01  0.667E-01
 -20.978  0.705E-01  0.705E-01
 -20.977  0.743E-01  0.743E-01
 -20.976  0.783E-01  0.783E-01
 -20.975  0.824E-01  0.824E-01
 -20.974  0.865E-01  0.865E-01
 -20.973  0.905E-01  0.905E-01
 -20.972  0.946E-01  0.946E-01
 -20.971  0.987E-01  0.987E-01
 -20.970  0.134E+00  0.134E+00
 -20.969  0.198E+00  0.198E+00
 -20.968  0.261E+00  0.261E+00
 -20.967  0.322E+00  0.322E+00
 -20.966  0.381E+00  0.381E+00
 -20.965  0.168E+00  0.168E+00
 -20.964  0.144E+00  0.144E+00
 -20.963  0.123E+00  0.123E+00
 -20.962  0.103E+00  0.103E+00
 -20.961  0.860E-01  0.860E-01
 -20.960  0.706E-01  0.706E-01
 -20.959  0.573E-01  0.573E-01
 -20.958  0.500E-01  0.500E-01
 -20.957  0.445E-01  0.445E-01
 -20.956  0.394E-01  0.394E-01
 -20.955  0.348E-01  0.348E-01
 -20.954  0.307E-01  0.307E-01
 -20.953  0.269E-01  0.269E-01
 -20.952  0.288E-01  0.288E-01
 -20.951  0.252E-01  0.252E-01
 -20.950  0.217E-01  0.217E-01
 -20.949  0.185E-01  0.185E-01
 -20.948  0.155E-01  0.155E-01
 -20.947  0.127E-01  0.127E-01
 -20.946  0.101E-01  0.101E-01
 -20.945  0.769E-02  0.769E-02
 -20.944  0.550E-02  0.550E-02
 -20.943  0.352E-02  0.352E-02
 -20.942  0.270E-02  0.270E-02
 -20.941  0.293E-02  0.293E-02
 -20.940  0.317E-02  0.317E-02
 -20.939  0.344E-02  0.344E-02
 -20.938  0.372E-02  0.372E-02
 -20.937  0.402E-02  0.402E-02
 -20.936  0.437E-02  0.437E-02
 -20.935  0.482E-02  0.482E-02
 -20.934  0.535E-02  0.535E-02
 -20.933  0.596E-02  0.596E-02
 -20.932  0.664E-02  0.664E-02
 -20.931  0.138E-01  0.138E-01
 -20.930  0.241E-01  0.241E-01
 -20.929  0.343E-01  0.343E-01
 -20.928  0.444E-01  0.444E-01
 -20.927  0.543E-01  0.543E-01
 -20.926  0.640E-01  0.640E-01
 -20.925  0.736E-01  0.736E-01
 -20.924  0.831E-01  0.831E-01
 -20.923  0.107E+00  0.107E+00
 -20.922  0.144E+00  0.144E+00
 -20.921  0.174E+00  0.174E+00
 -20.920  0.198E+00  0.198E+00
 -20.919  0.304E+00  0.304E+00
 -20.918  0.267E+00  0.267E+00
 -20.917  0.248E+00  0.248E+00
 -20.916  0.205E+00  0.205E+00
 -20.915  0.159E+00  0.159E+00
 -20.914  0.155E+00  0.155E+00
 -20.913  0.151E+00  0.151E+00
 -20.912  0.145E+00  0.145E+00
 -20.911  0.128E+00  0.128E+00
 -20.910  0.742E-01  0.742E-01
 -20.909  0.456E-01  0.456E-01
 -20.908  0.481E-01  0.481E-01
 -20.907  0.503E-01  0.503E-01
 -20.906  0.524E-01  0.524E-01
 -20.905  0.541E-01  0.541E-01
 -20.904  0.557E-01  0.557E-01
 -20.903  0.570E-01  0.570E-01
 -20.902  0.582E-01  0.582E-01
 -20.901  0.590E-01  0.590E-01
 -20.900  0.597E-01  0.597E-01
 -20.899  0.601E-01  0.601E-01
 -20.898  0.640E-01  0.640E-01
 -20.897  0.711E-01  0.711E-01
 -20.896  0.790E-01  0.790E-01
 -20.895  0.875E-01  0.875E-01
 -20.894  0.222E+00  0.222E+00
 -20.893  0.260E+00  0.260E+00
 -20.892  0.263E+00  0.263E+00
 -20.891  0.269E+00  0.269E+00
 -20.890  0.274E+00  0.274E+00
 -20.889  0.275E+00  0.275E+00
 -20.888  0.275E+00  0.275E+00
 -20.887  0.272E+00  0.272E+00
 -20.886  0.266E+00  0.266E+00
 -20.885  0.258E+00  0.258E+00
 -20.884  0.249E+00  0.249E+00
 -20.883  0.238E+00  0.238E+00
 -20.882  0.225E+00  0.225E+00
 -20.881  0.210E+00  0.210E+00
 -20.880  0.194E+00  0.194E+00
 -20.879  0.188E+00  0.188E+00
 -20.878  0.182E+00  0.182E+00
 -20.877  0.174E+00  0.174E+00
 -20.876  0.166E+00  0.166E+00
 -20.875  0.163E+00  0.163E+00
 -20.874  0.162E+00  0.162E+00
 -20.873  0.162E+00  0.162E+00
 -20.872  0.162E+00  0.162E+00
 -20.871  0.161E+00  0.161E+00
 -20.870  0.161E+00  0.161E+00
 -20.869  0.161E+00  0.161E+00
 -20.868  0.161E+00  0.161E+00
 -20.867  0.161E+00  0.161E+00
 -20.866  0.163E+00  0.163E+00
 -20.865  0.164E+00  0.164E+00
 -20.864  0.164E+00  0.164E+00
 -20.863  0.164E+00  0.164E+00
 -20.862  0.165E+00  0.165E+00
 -20.861  0.166E+00  0.166E+00
 -20.860  0.168E+00  0.168E+00
 -20.859  0.169E+00  0.169E+00
 -20.858  0.170E+00  0.170E+00
 -20.857  0.171E+00  0.171E+00
 -20.856  0.172E+00  0.172E+00
 -20.855  0.173E+00  0.173E+00
 -20.854  0.174E+00  0.174E+00
 -20.853  0.174E+00  0.174E+00
 -20.852  0.175E+00  0.175E+00
 -20.851  0.175E+00  0.175E+00
 -20.850  0.176E+00  0.176E+00
 -20.849  0.176E+00  0.176E+00
 -20.848  0.177E+00  0.177E+00
 -20.847  0.177E+00  0.177E+00
 -20.846  0.180E+00  0.180E+00
 -20.845  0.183E+00  0.183E+00
 -20.844  0.186E+00  0.186E+00
 -20.843  0.189E+00  0.189E+00
 -20.842  0.192E+00  0.192E+00
 -20.841  0.195E+00  0.195E+00
 -20.840  0.198E+00  0.198E+00
 -20.839  0.200E+00  0.200E+00
 -20.838  0.204E+00  0.204E+00
 -20.837  0.215E+00  0.215E+00
 -20.836  0.221E+00  0.221E+00
 -20.835  0.221E+00  0.221E+00
 -20.834  0.217E+00  0.217E+00
 -20.833  0.214E+00  0.214E+00
 -20.832  0.213E+00  0.213E+00
 -20.831  0.215E+00  0.215E+00
 -20.830  0.198E+00  0.198E+00
 -20.829  0.195E+00  0.195E+00
 -20.828  0.191E+00  0.191E+00
 -20.827  0.188E+00  0.188E+00
 -20.826  0.185E+00  0.185E+00
 -20.825  0.182E+00  0.182E+00
 -20.824  0.291E+00  0.291E+00
 -20.823  0.262E+00  0.262E+00
 -20.822  0.233E+00  0.233E+00
 -20.821  0.204E+00  0.204E+00
 -20.820  0.174E+00  0.174E+00
 -20.819  0.144E+00  0.144E+00
 -20.818  0.114E+00  0.114E+00
 -20.817  0.827E-01  0.827E-01
 -20.816  0.513E-01  0.513E-01
 -20.815  0.455E-01  0.455E-01
 -20.814  0.491E-01  0.491E-01
 -20.813  0.531E-01  0.531E-01
 -20.812  0.635E-01  0.635E-01
 -20.811  0.681E-01  0.681E-01
 -20.810  0.728E-01  0.728E-01
 -20.809  0.778E-01  0.778E-01
 -20.808  0.821E-01  0.821E-01
 -20.807  0.857E-01  0.857E-01
 -20.806  0.887E-01  0.887E-01
 -20.805  0.911E-01  0.911E-01
 -20.804  0.929E-01  0.929E-01
 -20.803  0.941E-01  0.941E-01
 -20.802  0.948E-01  0.948E-01
 -20.801  0.949E-01  0.949E-01
 -20.800  0.944E-01  0.944E-01
 -20.799  0.575E-01  0.575E-01
 -20.798  0.569E-01  0.569E-01
 -20.797  0.561E-01  0.561E-01
 -20.796  0.550E-01  0.550E-01
 -20.795  0.538E-01  0.538E-01
 -20.794  0.524E-01  0.524E-01
 -20.793  0.507E-01  0.507E-01
 -20.792  0.494E-01  0.494E-01
 -20.791  0.460E-01  0.460E-01
 -20.790  0.460E-01  0.460E-01
 -20.789  0.455E-01  0.455E-01
 -20.788  0.443E-01  0.443E-01
 -20.787  0.427E-01  0.427E-01
 -20.786  0.404E-01  0.404E-01
 -20.785  0.376E-01  0.376E-01
 -20.784  0.343E-01  0.343E-01
 -20.783  0.304E-01  0.304E-01
 -20.782  0.295E-01  0.295E-01
 -20.781  0.293E-01  0.293E-01
 -20.780  0.291E-01  0.291E-01
 -20.779  0.290E-01  0.290E-01
 -20.778  0.288E-01  0.288E-01
 -20.777  0.833E-01  0.833E-01
 -20.776  0.561E-01  0.561E-01
 -20.775  0.453E-01  0.453E-01
 -20.774  0.432E-01  0.432E-01