# E (eV)   ldos(E)   pdos(E)    pdos(E)    pdos(E)   
 -21.943  0.998E-05  0.151E-08  0.191E-05  0.807E-05
 -21.942  0.109E-04  0.165E-08  0.208E-05  0.882E-05
 -21.941  0.119E-04  0.180E-08  0.227E-05  0.962E-05
 -21.940  0.130E-04  0.196E-08  0.248E-05  0.105E-04
 -21.939  0.142E-04  0.214E-08  0.271E-05  0.115E-04
 -21.938  0.154E-04  0.233E-08  0.295E-05  0.125E-04
 -21.937  0.168E-04  0.254E-08  0.321E-05  0.136E-04
 -21.936  0.183E-04  0.277E-08  0.350E-05  0.148E-04
 -21.935  0.199E-04  0.302E-08  0.381E-05  0.161E-04
 -21.934  0.217E-04  0.328E-08  0.415E-05  0.176E-04
 -21.933  0.236E-04  0.357E-08  0.451E-05  0.191E-04
 -21.932  0.257E-04  0.388E-08  0.491E-05  0.208E-04
 -21.931  0.279E-04  0.422E-08  0.533E-05  0.226E-04
 -21.930  0.303E-04  0.458E-08  0.579E-05  0.245E-04
 -21.929  0.329E-04  0.498E-08  0.629E-05  0.266E-04
 -21.928  0.357E-04  0.540E-08  0.683E-05  0.289E-04
 -21.927  0.388E-04  0.586E-08  0.741E-05  0.314E-04
 -21.926  0.421E-04  0.636E-08  0.804E-05  0.340E-04
 -21.925  0.456E-04  0.689E-08  0.871E-05  0.369E-04
 -21.924  0.494E-04  0.747E-08  0.944E-05  0.400E-04
 -21.923  0.535E-04  0.809E-08  0.102E-04  0.433E-04
 -21.922  0.579E-04  0.876E-08  0.111E-04  0.469E-04
 -21.921  0.627E-04  0.948E-08  0.120E-04  0.507E-04
 -21.920  0.678E-04  0.103E-07  0.130E-04  0.549E-04
 -21.919  0.733E-04  0.111E-07  0.140E-04  0.593E-04
 -21.918  0.793E-04  0.120E-07  0.151E-04  0.641E-04
 -21.917  0.856E-04  0.129E-07  0.164E-04  0.693E-04
 -21.916  0.925E-04  0.140E-07  0.177E-04  0.748E-04
 -21.915  0.998E-04  0.151E-07  0.191E-04  0.807E-04
 -21.914  0.108E-03  0.163E-07  0.206E-04  0.871E-04
 -21.913  0.116E-03  0.176E-07  0.222E-04  0.939E-04
 -21.912  0.125E-03  0.189E-07  0.239E-04  0.101E-03
 -21.911  0.135E-03  0.204E-07  0.258E-04  0.109E-03
 -21.910  0.145E-03  0.220E-07  0.278E-04  0.118E-03
 -21.909  0.156E-03  0.236E-07  0.299E-04  0.127E-03
 -21.908  0.168E-03  0.254E-07  0.322E-04  0.136E-03
 -21.907  0.181E-03  0.274E-07  0.346E-04  0.146E-03
 -21.906  0.195E-03  0.294E-07  0.372E-04  0.157E-03
 -21.905  0.209E-03  0.316E-07  0.400E-04  0.169E-03
 -21.904  0.225E-03  0.340E-07  0.430E-04  0.182E-03
 -21.903  0.241E-03  0.365E-07  0.461E-04  0.195E-03
 -21.902  0.259E-03  0.392E-07  0.495E-04  0.210E-03
 -21.901  0.278E-03  0.420E-07  0.531E-04  0.225E-03
 -21.900  0.298E-03  0.451E-07  0.570E-04  0.241E-03
 -21.899  0.320E-03  0.483E-07  0.611E-04  0.258E-03
 -21.898  0.342E-03  0.518E-07  0.654E-04  0.277E-03
 -21.897  0.367E-03  0.554E-07  0.701E-04  0.297E-03
 -21.896  0.393E-03  0.593E-07  0.750E-04  0.317E-03
 -21.895  0.420E-03  0.635E-07  0.803E-04  0.340E-03
 -21.894  0.449E-03  0.679E-07  0.859E-04  0.363E-03
 -21.893  0.480E-03  0.726E-07  0.918E-04  0.389E-03
 -21.892  0.513E-03  0.776E-07  0.981E-04  0.415E-03
 -21.891  0.548E-03  0.829E-07  0.105E-03  0.444E-03
 -21.890  0.586E-03  0.885E-07  0.112E-03  0.474E-03
 -21.889  0.625E-03  0.945E-07  0.119E-03  0.506E-03
 -21.888  0.667E-03  0.101E-06  0.127E-03  0.539E-03
 -21.887  0.711E-03  0.108E-06  0.136E-03  0.575E-03
 -21.886  0.758E-03  0.115E-06  0.145E-03  0.613E-03
 -21.885  0.808E-03  0.122E-06  0.154E-03  0.653E-03
 -21.884  0.860E-03  0.130E-06  0.164E-03  0.696E-03
 -21.883  0.916E-03  0.138E-06  0.175E-03  0.741E-03
 -21.882  0.975E-03  0.147E-06  0.186E-03  0.788E-03
 -21.881  0.104E-02  0.157E-06  0.198E-03  0.838E-03
 -21.880  0.110E-02  0.167E-06  0.211E-03  0.891E-03
 -21.879  0.117E-02  0.177E-06  0.224E-03  0.947E-03
 -21.878  0.124E-02  0.188E-06  0.238E-03  0.101E-02
 -21.877  0.132E-02  0.200E-06  0.252E-03  0.107E-02
 -21.876  0.140E-02  0.212E-06  0.268E-03  0.113E-02
 -21.875  0.149E-02  0.225E-06  0.284E-03  0.120E-02
 -21.874  0.158E-02  0.238E-06  0.301E-03  0.128E-02
 -21.873  0.167E-02  0.253E-06  0.319E-03  0.135E-02
 -21.872  0.177E-02  0.268E-06  0.339E-03  0.143E-02
 -21.871  0.188E-02  0.284E-06  0.358E-03  0.152E-02
 -21.870  0.199E-02  0.300E-06  0.380E-03  0.161E-02
 -21.869  0.210E-02  0.318E-06  0.402E-03  0.170E-02
 -21.868  0.222E-02  0.336E-06  0.425E-03  0.180E-02
 -21.867  0.235E-02  0.355E-06  0.449E-03  0.190E-02
 -21.866  0.248E-02  0.375E-06  0.475E-03  0.201E-02
 -21.865  0.262E-02  0.397E-06  0.501E-03  0.212E-02
 -21.864  0.277E-02  0.419E-06  0.529E-03  0.224E-02
 -21.863  0.292E-02  0.442E-06  0.559E-03  0.236E-02
 -21.862  0.308E-02  0.466E-06  0.589E-03  0.249E-02
 -21.861  0.325E-02  0.492E-06  0.621E-03  0.263E-02
 -21.860  0.343E-02  0.518E-06  0.655E-03  0.277E-02
 -21.859  0.361E-02  0.546E-06  0.690E-03  0.292E-02
 -21.858  0.380E-02  0.575E-06  0.727E-03  0.308E-02
 -21.857  0.400E-02  0.605E-06  0.765E-03  0.324E-02
 -21.856  0.421E-02  0.637E-06  0.805E-03  0.341E-02
 -21.855  0.443E-02  0.670E-06  0.847E-03  0.358E-02
 -21.854  0.466E-02  0.704E-06  0.890E-03  0.377E-02
 -21.853  0.490E-02  0.740E-06  0.935E-03  0.396E-02
 -21.852  0.514E-02  0.777E-06  0.983E-03  0.416E-02
 -21.851  0.540E-02  0.816E-06  0.103E-02  0.437E-02
 -21.850  0.567E-02  0.856E-06  0.108E-02  0.458E-02
 -21.849  0.594E-02  0.898E-06  0.114E-02  0.481E-02
 -21.848  0.623E-02  0.942E-06  0.119E-02  0.504E-02
 -21.847  0.653E-02  0.987E-06  0.125E-02  0.528E-02
 -21.846  0.684E-02  0.103E-05  0.131E-02  0.554E-02
 -21.845  0.717E-02  0.108E-05  0.137E-02  0.580E-02
 -21.844  0.750E-02  0.113E-05  0.143E-02  0.607E-02
 -21.843  0.785E-02  0.119E-05  0.150E-02  0.635E-02
 -21.842  0.821E-02  0.124E-05  0.157E-02  0.664E-02
 -21.841  0.858E-02  0.130E-05  0.164E-02  0.694E-02
 -21.840  0.897E-02  0.136E-05  0.171E-02  0.725E-02
 -21.839  0.937E-02  0.142E-05  0.179E-02  0.758E-02
 -21.838  0.978E-02  0.148E-05  0.187E-02  0.791E-02
 -21.837  0.102E-01  0.154E-05  0.195E-02  0.826E-02
 -21.836  0.106E-01  0.161E-05  0.203E-02  0.861E-02
 -21.835  0.111E-01  0.168E-05  0.212E-02  0.898E-02
 -21.834  0.116E-01  0.175E-05  0.221E-02  0.936E-02
 -21.833  0.121E-01  0.182E-05  0.230E-02  0.975E-02
 -21.832  0.126E-01  0.190E-05  0.240E-02  0.102E-01
 -21.831  0.131E-01  0.198E-05  0.250E-02  0.106E-01
 -21.830  0.136E-01  0.206E-05  0.260E-02  0.110E-01
 -21.829  0.141E-01  0.214E-05  0.270E-02  0.114E-01
 -21.828  0.147E-01  0.222E-05  0.281E-02  0.119E-01
 -21.827  0.153E-01  0.231E-05  0.292E-02  0.124E-01
 -21.826  0.159E-01  0.240E-05  0.303E-02  0.128E-01
 -21.825  0.165E-01  0.249E-05  0.315E-02  0.133E-01
 -21.824  0.171E-01  0.258E-05  0.327E-02  0.138E-01
 -21.823  0.177E-01  0.268E-05  0.339E-02  0.143E-01
 -21.822  0.184E-01  0.278E-05  0.351E-02  0.149E-01
 -21.821  0.191E-01  0.288E-05  0.364E-02  0.154E-01
 -21.820  0.197E-01  0.298E-05  0.377E-02  0.160E-01
 -21.819  0.204E-01  0.309E-05  0.391E-02  0.165E-01
 -21.818  0.212E-01  0.320E-05  0.404E-02  0.171E-01
 -21.817  0.219E-01  0.331E-05  0.418E-02  0.177E-01
 -21.816  0.226E-01  0.342E-05  0.433E-02  0.183E-01
 -21.815  0.234E-01  0.354E-05  0.447E-02  0.189E-01
 -21.814  0.242E-01  0.366E-05  0.462E-02  0.196E-01
 -21.813  0.250E-01  0.378E-05  0.477E-02  0.202E-01
 -21.812  0.258E-01  0.390E-05  0.493E-02  0.209E-01
 -21.811  0.266E-01  0.402E-05  0.509E-02  0.215E-01
 -21.810  0.275E-01  0.415E-05  0.525E-02  0.222E-01
 -21.809  0.283E-01  0.428E-05  0.541E-02  0.229E-01
 -21.808  0.292E-01  0.441E-05  0.557E-02  0.236E-01
 -21.807  0.301E-01  0.454E-05  0.574E-02  0.243E-01
 -21.806  0.309E-01  0.468E-05  0.591E-02  0.250E-01
 -21.805  0.319E-01  0.481E-05  0.609E-02  0.258E-01
 -21.804  0.328E-01  0.495E-05  0.626E-02  0.265E-01
 -21.803  0.337E-01  0.509E-05  0.644E-02  0.273E-01
 -21.802  0.346E-01  0.524E-05  0.662E-02  0.280E-01
 -21.801  0.356E-01  0.538E-05  0.680E-02  0.288E-01
 -21.800  0.366E-01  0.553E-05  0.699E-02  0.296E-01
 -21.799  0.375E-01  0.567E-05  0.717E-02  0.304E-01
 -21.798  0.385E-01  0.582E-05  0.736E-02  0.311E-01
 -21.797  0.395E-01  0.597E-05  0.755E-02  0.320E-01
 -21.796  0.405E-01  0.612E-05  0.774E-02  0.328E-01
 -21.795  0.415E-01  0.627E-05  0.793E-02  0.336E-01
 -21.794  0.425E-01  0.643E-05  0.813E-02  0.344E-01
 -21.793  0.435E-01  0.658E-05  0.832E-02  0.352E-01
 -21.792  0.446E-01  0.674E-05  0.852E-02  0.360E-01
 -21.791  0.456E-01  0.689E-05  0.871E-02  0.369E-01
 -21.790  0.466E-01  0.705E-05  0.891E-02  0.377E-01
 -21.789  0.477E-01  0.720E-05  0.911E-02  0.385E-01
 -21.788  0.487E-01  0.736E-05  0.931E-02  0.394E-01
 -21.787  0.497E-01  0.752E-05  0.950E-02  0.402E-01
 -21.786  0.508E-01  0.767E-05  0.970E-02  0.411E-01
 -21.785  0.518E-01  0.783E-05  0.990E-02  0.419E-01
 -21.784  0.528E-01  0.799E-05  0.101E-01  0.427E-01
 -21.783  0.539E-01  0.814E-05  0.103E-01  0.436E-01
 -21.782  0.549E-01  0.830E-05  0.105E-01  0.444E-01
 -21.781  0.559E-01  0.845E-05  0.107E-01  0.452E-01
 -21.780  0.570E-01  0.861E-05  0.109E-01  0.461E-01
 -21.779  0.580E-01  0.876E-05  0.111E-01  0.469E-01
 -21.778  0.590E-01  0.891E-05  0.113E-01  0.477E-01
 -21.777  0.600E-01  0.906E-05  0.115E-01  0.485E-01
 -21.776  0.610E-01  0.921E-05  0.116E-01  0.493E-01
 -21.775  0.619E-01  0.936E-05  0.118E-01  0.501E-01
 -21.774  0.629E-01  0.951E-05  0.120E-01  0.509E-01
 -21.773  0.638E-01  0.965E-05  0.122E-01  0.516E-01
 -21.772  0.648E-01  0.979E-05  0.124E-01  0.524E-01
 -21.771  0.657E-01  0.993E-05  0.126E-01  0.531E-01
 -21.770  0.666E-01  0.101E-04  0.127E-01  0.539E-01
 -21.769  0.675E-01  0.102E-04  0.129E-01  0.546E-01
 -21.768  0.684E-01  0.103E-04  0.131E-01  0.553E-01
 -21.767  0.692E-01  0.105E-04  0.132E-01  0.560E-01
 -21.766  0.701E-01  0.106E-04  0.134E-01  0.567E-01
 -21.765  0.709E-01  0.107E-04  0.135E-01  0.573E-01
 -21.764  0.717E-01  0.108E-04  0.137E-01  0.580E-01
 -21.763  0.725E-01  0.110E-04  0.138E-01  0.586E-01
 -21.762  0.732E-01  0.111E-04  0.140E-01  0.592E-01
 -21.761  0.739E-01  0.112E-04  0.141E-01  0.598E-01
 -21.760  0.746E-01  0.113E-04  0.143E-01  0.604E-01
 -21.759  0.753E-01  0.114E-04  0.144E-01  0.609E-01
 -21.758  0.760E-01  0.115E-04  0.145E-01  0.614E-01
 -21.757  0.766E-01  0.116E-04  0.146E-01  0.619E-01
 -21.756  0.772E-01  0.117E-04  0.147E-01  0.624E-01
 -21.755  0.777E-01  0.117E-04  0.149E-01  0.629E-01
 -21.754  0.783E-01  0.118E-04  0.150E-01  0.633E-01
 -21.753  0.788E-01  0.119E-04  0.151E-01  0.637E-01
 -21.752  0.792E-01  0.120E-04  0.151E-01  0.641E-01
 -21.751  0.797E-01  0.120E-04  0.152E-01  0.644E-01
 -21.750  0.801E-01  0.121E-04  0.153E-01  0.648E-01
 -21.749  0.805E-01  0.122E-04  0.154E-01  0.651E-01
 -21.748  0.808E-01  0.122E-04  0.154E-01  0.653E-01
 -21.747  0.811E-01  0.123E-04  0.155E-01  0.656E-01
 -21.746  0.814E-01  0.123E-04  0.155E-01  0.658E-01
 -21.745  0.816E-01  0.123E-04  0.156E-01  0.660E-01
 -21.744  0.818E-01  0.124E-04  0.156E-01  0.662E-01
 -21.743  0.820E-01  0.124E-04  0.157E-01  0.663E-01
 -21.742  0.821E-01  0.124E-04  0.157E-01  0.664E-01
 -21.741  0.822E-01  0.124E-04  0.157E-01  0.665E-01
 -21.740  0.823E-01  0.124E-04  0.157E-01  0.665E-01
 -21.739  0.823E-01  0.124E-04  0.157E-01  0.666E-01
 -21.738  0.823E-01  0.124E-04  0.157E-01  0.666E-01
 -21.737  0.823E-01  0.124E-04  0.157E-01  0.665E-01
 -21.736  0.822E-01  0.124E-04  0.157E-01  0.665E-01
 -21.735  0.821E-01  0.124E-04  0.157E-01  0.664E-01
 -21.734  0.819E-01  0.124E-04  0.157E-01  0.663E-01
 -21.733  0.817E-01  0.124E-04  0.156E-01  0.661E-01
 -21.732  0.815E-01  0.123E-04  0.156E-01  0.659E-01
 -21.731  0.813E-01  0.123E-04  0.155E-01  0.657E-01
 -21.730  0.810E-01  0.122E-04  0.155E-01  0.655E-01
 -21.729  0.807E-01  0.122E-04  0.154E-01  0.652E-01
 -21.728  0.803E-01  0.121E-04  0.153E-01  0.649E-01
 -21.727  0.799E-01  0.121E-04  0.153E-01  0.646E-01
 -21.726  0.795E-01  0.120E-04  0.152E-01  0.643E-01
 -21.725  0.790E-01  0.119E-04  0.151E-01  0.639E-01
 -21.724  0.786E-01  0.119E-04  0.150E-01  0.635E-01
 -21.723  0.780E-01  0.118E-04  0.149E-01  0.631E-01
 -21.722  0.775E-01  0.117E-04  0.148E-01  0.627E-01
 -21.721  0.769E-01  0.116E-04  0.147E-01  0.622E-01
 -21.720  0.763E-01  0.115E-04  0.146E-01  0.617E-01
 -21.719  0.757E-01  0.114E-04  0.145E-01  0.612E-01
 -21.718  0.750E-01  0.113E-04  0.143E-01  0.607E-01
 -21.717  0.743E-01  0.112E-04  0.142E-01  0.601E-01
 -21.716  0.736E-01  0.111E-04  0.141E-01  0.595E-01
 -21.715  0.729E-01  0.110E-04  0.139E-01  0.590E-01
 -21.714  0.721E-01  0.109E-04  0.138E-01  0.583E-01
 -21.713  0.714E-01  0.108E-04  0.136E-01  0.577E-01
 -21.712  0.705E-01  0.107E-04  0.135E-01  0.571E-01
 -21.711  0.697E-01  0.105E-04  0.133E-01  0.564E-01
 -21.710  0.689E-01  0.104E-04  0.132E-01  0.557E-01
 -21.709  0.680E-01  0.103E-04  0.130E-01  0.550E-01
 -21.708  0.671E-01  0.101E-04  0.128E-01  0.543E-01
 -21.707  0.662E-01  0.100E-04  0.127E-01  0.536E-01
 -21.706  0.653E-01  0.987E-05  0.125E-01  0.528E-01
 -21.705  0.644E-01  0.973E-05  0.123E-01  0.521E-01
 -21.704  0.634E-01  0.959E-05  0.121E-01  0.513E-01
 -21.703  0.625E-01  0.944E-05  0.119E-01  0.505E-01
 -21.702  0.615E-01  0.930E-05  0.118E-01  0.498E-01
 -21.701  0.605E-01  0.915E-05  0.116E-01  0.490E-01
 -21.700  0.595E-01  0.900E-05  0.114E-01  0.482E-01
 -21.699  0.585E-01  0.885E-05  0.112E-01  0.473E-01
 -21.698  0.575E-01  0.870E-05  0.110E-01  0.465E-01
 -21.697  0.565E-01  0.854E-05  0.108E-01  0.457E-01
 -21.696  0.555E-01  0.839E-05  0.106E-01  0.449E-01
 -21.695  0.545E-01  0.823E-05  0.104E-01  0.441E-01
 -21.694  0.534E-01  0.808E-05  0.102E-01  0.432E-01
 -21.693  0.524E-01  0.792E-05  0.100E-01  0.424E-01
 -21.692  0.514E-01  0.776E-05  0.982E-02  0.415E-01
 -21.691  0.503E-01  0.761E-05  0.962E-02  0.407E-01
 -21.690  0.493E-01  0.745E-05  0.942E-02  0.399E-01
 -21.689  0.483E-01  0.729E-05  0.922E-02  0.390E-01
 -21.688  0.472E-01  0.714E-05  0.902E-02  0.382E-01
 -21.687  0.462E-01  0.698E-05  0.883E-02  0.374E-01
 -21.686  0.452E-01  0.683E-05  0.863E-02  0.365E-01
 -21.685  0.441E-01  0.667E-05  0.843E-02  0.357E-01
 -21.684  0.431E-01  0.652E-05  0.824E-02  0.349E-01
 -21.683  0.421E-01  0.636E-05  0.804E-02  0.340E-01
 -21.682  0.411E-01  0.621E-05  0.785E-02  0.332E-01
 -21.681  0.401E-01  0.606E-05  0.766E-02  0.324E-01
 -21.680  0.391E-01  0.591E-05  0.747E-02  0.316E-01
 -21.679  0.381E-01  0.576E-05  0.728E-02  0.308E-01
 -21.678  0.371E-01  0.561E-05  0.709E-02  0.300E-01
 -21.677  0.361E-01  0.546E-05  0.691E-02  0.292E-01
 -21.676  0.352E-01  0.532E-05  0.672E-02  0.285E-01
 -21.675  0.342E-01  0.518E-05  0.654E-02  0.277E-01
 -21.674  0.333E-01  0.503E-05  0.636E-02  0.269E-01
 -21.673  0.324E-01  0.489E-05  0.619E-02  0.262E-01
 -21.672  0.315E-01  0.476E-05  0.601E-02  0.254E-01
 -21.671  0.306E-01  0.462E-05  0.584E-02  0.247E-01
 -21.670  0.297E-01  0.449E-05  0.567E-02  0.240E-01
 -21.669  0.288E-01  0.435E-05  0.550E-02  0.233E-01
 -21.668  0.279E-01  0.422E-05  0.534E-02  0.226E-01
 -21.667  0.271E-01  0.410E-05  0.518E-02  0.219E-01
 -21.666  0.263E-01  0.397E-05  0.502E-02  0.212E-01
 -21.665  0.254E-01  0.385E-05  0.486E-02  0.206E-01
 -21.664  0.246E-01  0.372E-05  0.471E-02  0.199E-01
 -21.663  0.239E-01  0.361E-05  0.456E-02  0.193E-01
 -21.662  0.231E-01  0.349E-05  0.441E-02  0.187E-01
 -21.661  0.223E-01  0.337E-05  0.427E-02  0.181E-01
 -21.660  0.216E-01  0.326E-05  0.412E-02  0.175E-01
 -21.659  0.209E-01  0.315E-05  0.398E-02  0.169E-01
 -21.658  0.201E-01  0.304E-05  0.385E-02  0.163E-01
 -21.657  0.194E-01  0.294E-05  0.372E-02  0.157E-01
 -21.656  0.188E-01  0.284E-05  0.359E-02  0.152E-01
 -21.655  0.181E-01  0.274E-05  0.346E-02  0.146E-01
 -21.654  0.175E-01  0.264E-05  0.334E-02  0.141E-01
 -21.653  0.168E-01  0.254E-05  0.322E-02  0.136E-01
 -21.652  0.162E-01  0.245E-05  0.310E-02  0.131E-01
 -21.651  0.156E-01  0.236E-05  0.298E-02  0.126E-01
 -21.650  0.150E-01  0.227E-05  0.287E-02  0.122E-01
 -21.649  0.145E-01  0.219E-05  0.276E-02  0.117E-01
 -21.648  0.139E-01  0.210E-05  0.266E-02  0.112E-01
 -21.647  0.134E-01  0.202E-05  0.255E-02  0.108E-01
 -21.646  0.128E-01  0.194E-05  0.245E-02  0.104E-01
 -21.645  0.123E-01  0.187E-05  0.236E-02  0.998E-02
 -21.644  0.118E-01  0.179E-05  0.226E-02  0.958E-02
 -21.643  0.114E-01  0.172E-05  0.217E-02  0.920E-02
 -21.642  0.109E-01  0.165E-05  0.208E-02  0.882E-02
 -21.641  0.105E-01  0.158E-05  0.200E-02  0.846E-02
 -21.640  0.100E-01  0.152E-05  0.192E-02  0.811E-02
 -21.639  0.960E-02  0.145E-05  0.183E-02  0.777E-02
 -21.638  0.920E-02  0.139E-05  0.176E-02  0.744E-02
 -21.637  0.880E-02  0.133E-05  0.168E-02  0.712E-02
 -21.636  0.842E-02  0.127E-05  0.161E-02  0.681E-02
 -21.635  0.805E-02  0.122E-05  0.154E-02  0.651E-02
 -21.634  0.770E-02  0.116E-05  0.147E-02  0.623E-02
 -21.633  0.736E-02  0.111E-05  0.141E-02  0.595E-02
 -21.632  0.703E-02  0.106E-05  0.134E-02  0.568E-02
 -21.631  0.671E-02  0.101E-05  0.128E-02  0.543E-02
 -21.630  0.640E-02  0.968E-06  0.122E-02  0.518E-02
 -21.629  0.611E-02  0.923E-06  0.117E-02  0.494E-02
 -21.628  0.582E-02  0.880E-06  0.111E-02  0.471E-02
 -21.627  0.555E-02  0.839E-06  0.106E-02  0.449E-02
 -21.626  0.529E-02  0.799E-06  0.101E-02  0.428E-02
 -21.625  0.503E-02  0.761E-06  0.962E-03  0.407E-02
 -21.624  0.479E-02  0.724E-06  0.916E-03  0.388E-02
 -21.623  0.456E-02  0.689E-06  0.871E-03  0.369E-02
 -21.622  0.434E-02  0.655E-06  0.829E-03  0.351E-02
 -21.621  0.412E-02  0.623E-06  0.788E-03  0.333E-02
 -21.620  0.392E-02  0.592E-06  0.748E-03  0.317E-02
 -21.619  0.372E-02  0.562E-06  0.711E-03  0.301E-02
 -21.618  0.353E-02  0.534E-06  0.675E-03  0.286E-02
 -21.617  0.335E-02  0.507E-06  0.640E-03  0.271E-02
 -21.616  0.318E-02  0.481E-06  0.607E-03  0.257E-02
 -21.615  0.301E-02  0.456E-06  0.576E-03  0.244E-02
 -21.614  0.286E-02  0.432E-06  0.546E-03  0.231E-02
 -21.613  0.271E-02  0.409E-06  0.517E-03  0.219E-02
 -21.612  0.256E-02  0.387E-06  0.490E-03  0.207E-02
 -21.611  0.243E-02  0.367E-06  0.463E-03  0.196E-02
 -21.610  0.229E-02  0.347E-06  0.438E-03  0.186E-02
 -21.609  0.217E-02  0.328E-06  0.415E-03  0.176E-02
 -21.608  0.205E-02  0.310E-06  0.392E-03  0.166E-02
 -21.607  0.194E-02  0.293E-06  0.370E-03  0.157E-02
 -21.606  0.183E-02  0.277E-06  0.350E-03  0.148E-02
 -21.605  0.173E-02  0.261E-06  0.330E-03  0.140E-02
 -21.604  0.163E-02  0.247E-06  0.312E-03  0.132E-02
 -21.603  0.154E-02  0.233E-06  0.294E-03  0.124E-02
 -21.602  0.145E-02  0.219E-06  0.277E-03  0.117E-02
 -21.601  0.137E-02  0.207E-06  0.261E-03  0.111E-02
 -21.600  0.129E-02  0.195E-06  0.246E-03  0.104E-02
 -21.599  0.121E-02  0.183E-06  0.232E-03  0.981E-03
 -21.598  0.114E-02  0.172E-06  0.218E-03  0.923E-03
 -21.597  0.107E-02  0.162E-06  0.205E-03  0.868E-03
 -21.596  0.101E-02  0.153E-06  0.193E-03  0.816E-03
 -21.595  0.949E-03  0.143E-06  0.181E-03  0.767E-03
 -21.594  0.892E-03  0.135E-06  0.170E-03  0.721E-03
 -21.593  0.837E-03  0.127E-06  0.160E-03  0.677E-03
 -21.592  0.786E-03  0.119E-06  0.150E-03  0.636E-03
 -21.591  0.738E-03  0.112E-06  0.141E-03  0.597E-03
 -21.590  0.692E-03  0.105E-06  0.132E-03  0.560E-03
 -21.589  0.649E-03  0.981E-07  0.124E-03  0.525E-03
 -21.588  0.608E-03  0.919E-07  0.116E-03  0.492E-03
 -21.587  0.569E-03  0.861E-07  0.109E-03  0.461E-03
 -21.586  0.533E-03  0.806E-07  0.102E-03  0.431E-03
 -21.585  0.499E-03  0.754E-07  0.954E-04  0.404E-03
 -21.584  0.467E-03  0.706E-07  0.892E-04  0.378E-03
 -21.583  0.437E-03  0.660E-07  0.834E-04  0.353E-03
 -21.582  0.408E-03  0.617E-07  0.780E-04  0.330E-03
 -21.581  0.381E-03  0.576E-07  0.729E-04  0.308E-03
 -21.580  0.356E-03  0.538E-07  0.680E-04  0.288E-03
 -21.579  0.332E-03  0.502E-07  0.635E-04  0.269E-03
 -21.578  0.310E-03  0.469E-07  0.593E-04  0.251E-03
 -21.577  0.289E-03  0.437E-07  0.553E-04  0.234E-03
 -21.576  0.270E-03  0.408E-07  0.515E-04  0.218E-03
 -21.575  0.251E-03  0.380E-07  0.480E-04  0.203E-03
 -21.574  0.234E-03  0.354E-07  0.447E-04  0.189E-03
 -21.573  0.218E-03  0.329E-07  0.417E-04  0.176E-03
 -21.572  0.203E-03  0.307E-07  0.388E-04  0.164E-03
 -21.571  0.189E-03  0.285E-07  0.361E-04  0.153E-03
 -21.570  0.175E-03  0.265E-07  0.335E-04  0.142E-03
 -21.569  0.163E-03  0.247E-07  0.312E-04  0.132E-03
 -21.568  0.152E-03  0.229E-07  0.290E-04  0.123E-03
 -21.567  0.141E-03  0.213E-07  0.269E-04  0.114E-03
 -21.566  0.131E-03  0.197E-07  0.250E-04  0.106E-03
 -21.565  0.121E-03  0.183E-07  0.232E-04  0.980E-04
 -21.564  0.112E-03  0.170E-07  0.215E-04  0.909E-04
 -21.563  0.104E-03  0.158E-07  0.199E-04  0.843E-04
 -21.562  0.966E-04  0.146E-07  0.185E-04  0.781E-04
 -21.561  0.895E-04  0.135E-07  0.171E-04  0.724E-04
 -21.560  0.828E-04  0.125E-07  0.158E-04  0.670E-04
 -21.559  0.767E-04  0.116E-07  0.146E-04  0.620E-04
 -21.558  0.709E-04  0.107E-07  0.136E-04  0.574E-04
 -21.557  0.656E-04  0.991E-08  0.125E-04  0.530E-04
 -21.556  0.606E-04  0.916E-08  0.116E-04  0.490E-04
 -21.555  0.560E-04  0.846E-08  0.107E-04  0.453E-04
 -21.554  0.517E-04  0.782E-08  0.988E-05  0.418E-04
 -21.553  0.477E-04  0.722E-08  0.912E-05  0.386E-04
 -21.552  0.440E-04  0.666E-08  0.842E-05  0.356E-04
 -21.551  0.406E-04  0.614E-08  0.776E-05  0.329E-04
 -21.550  0.374E-04  0.566E-08  0.716E-05  0.303E-04
 -21.549  0.345E-04  0.522E-08  0.659E-05  0.279E-04
 -21.548  0.318E-04  0.480E-08  0.607E-05  0.257E-04
 -21.547  0.293E-04  0.442E-08  0.559E-05  0.237E-04
 -21.546  0.269E-04  0.407E-08  0.515E-05  0.218E-04
 -21.545  0.248E-04  0.374E-08  0.473E-05  0.200E-04
 -21.544  0.228E-04  0.344E-08  0.435E-05  0.184E-04
 -21.543  0.209E-04  0.316E-08  0.400E-05  0.169E-04
 -21.542  0.192E-04  0.291E-08  0.368E-05  0.156E-04
 -21.541  0.177E-04  0.267E-08  0.337E-05  0.143E-04
 -21.540  0.162E-04  0.245E-08  0.310E-05  0.131E-04
 -21.539  0.149E-04  0.225E-08  0.284E-05  0.120E-04
 -21.538  0.136E-04  0.206E-08  0.261E-05  0.110E-04
 -21.537  0.125E-04  0.189E-08  0.239E-05  0.101E-04
 -21.536  0.115E-04  0.173E-08  0.219E-05  0.927E-05
 -21.535  0.105E-04  0.159E-08  0.201E-05  0.849E-05
 -21.534  0.961E-05  0.145E-08  0.184E-05  0.777E-05
 -21.533  0.879E-05  0.133E-08  0.168E-05  0.711E-05
 -21.532  0.804E-05  0.122E-08  0.154E-05  0.651E-05
 -21.531  0.736E-05  0.111E-08  0.141E-05  0.595E-05
 -21.530  0.672E-05  0.102E-08  0.128E-05  0.544E-05
 -21.529  0.614E-05  0.928E-09  0.117E-05  0.497E-05
 -21.528  0.561E-05  0.848E-09  0.107E-05  0.454E-05
 -21.527  0.512E-05  0.774E-09  0.978E-06  0.414E-05
 -21.526  0.467E-05  0.706E-09  0.892E-06  0.378E-05
 -21.525  0.426E-05  0.644E-09  0.814E-06  0.344E-05
 -21.524  0.388E-05  0.587E-09  0.742E-06  0.314E-05
 -21.523  0.354E-05  0.535E-09  0.676E-06  0.286E-05
 -21.522  0.322E-05  0.487E-09  0.616E-06  0.261E-05
 -21.521  0.293E-05  0.443E-09  0.561E-06  0.237E-05
 -21.520  0.267E-05  0.404E-09  0.510E-06  0.216E-05
 -21.519  0.243E-05  0.367E-09  0.464E-06  0.196E-05
 -21.518  0.221E-05  0.334E-09  0.422E-06  0.179E-05
 -21.517  0.201E-05  0.303E-09  0.384E-06  0.162E-05
 -21.516  0.182E-05  0.276E-09  0.349E-06  0.147E-05
 -21.515  0.166E-05  0.250E-09  0.317E-06  0.134E-05
 -21.514  0.150E-05  0.227E-09  0.287E-06  0.122E-05
 -21.513  0.136E-05  0.206E-09  0.261E-06  0.110E-05
 -21.512  0.124E-05  0.187E-09  0.237E-06  0.100E-05
 -21.511  0.112E-05  0.169E-09  0.215E-06  0.907E-06
 -21.510  0.102E-05  0.154E-09  0.195E-06  0.822E-06
 -21.509  0.921E-06  0.139E-09  0.176E-06  0.745E-06
 -21.508  0.834E-06  0.126E-09  0.160E-06  0.675E-06
 -21.507  0.756E-06  0.114E-09  0.145E-06  0.611E-06
 -21.506  0.684E-06  0.103E-09  0.131E-06  0.553E-06
 -21.505  0.619E-06  0.933E-10  0.119E-06  0.500E-06
 -21.504  0.560E-06  0.843E-10  0.108E-06  0.452E-06
 -21.503  0.507E-06  0.762E-10  0.974E-07  0.409E-06
 -21.502  0.458E-06  0.689E-10  0.883E-07  0.370E-06
 -21.501  0.415E-06  0.622E-10  0.800E-07  0.335E-06
 -21.500  0.375E-06  0.562E-10  0.725E-07  0.303E-06
 -21.499  0.339E-06  0.507E-10  0.658E-07  0.274E-06
 -21.498  0.307E-06  0.458E-10  0.598E-07  0.247E-06
 -21.497  0.278E-06  0.413E-10  0.544E-07  0.224E-06
 -21.496  0.252E-06  0.373E-10  0.495E-07  0.203E-06
 -21.495  0.229E-06  0.337E-10  0.452E-07  0.184E-06
 -21.494  0.208E-06  0.304E-10  0.414E-07  0.167E-06
 -21.493  0.189E-06  0.275E-10  0.380E-07  0.151E-06
 -21.492  0.173E-06  0.248E-10  0.351E-07  0.138E-06
 -21.491  0.158E-06  0.225E-10  0.325E-07  0.126E-06
 -21.490  0.145E-06  0.203E-10  0.303E-07  0.115E-06
 -21.489  0.134E-06  0.184E-10  0.284E-07  0.105E-06
 -21.488  0.124E-06  0.168E-10  0.269E-07  0.970E-07
 -21.487  0.115E-06  0.153E-10  0.256E-07  0.898E-07
 -21.486  0.108E-06  0.139E-10  0.246E-07  0.836E-07
 -21.485  0.102E-06  0.128E-10  0.239E-07  0.784E-07
 -21.484  0.976E-07  0.117E-10  0.235E-07  0.740E-07
 -21.483  0.939E-07  0.109E-10  0.234E-07  0.705E-07
 -21.482  0.913E-07  0.101E-10  0.235E-07  0.678E-07
 -21.481  0.897E-07  0.945E-11  0.238E-07  0.659E-07
 -21.480  0.892E-07  0.891E-11  0.245E-07  0.647E-07
 -21.479  0.896E-07  0.848E-11  0.253E-07  0.642E-07
 -21.478  0.910E-07  0.815E-11  0.265E-07  0.645E-07
 -21.477  0.934E-07  0.791E-11  0.279E-07  0.654E-07
 -21.476  0.967E-07  0.776E-11  0.297E-07  0.671E-07
 -21.475  0.101E-06  0.770E-11  0.317E-07  0.694E-07
 -21.474  0.107E-06  0.772E-11  0.341E-07  0.725E-07
 -21.473  0.113E-06  0.782E-11  0.368E-07  0.764E-07
 -21.472  0.121E-06  0.801E-11  0.399E-07  0.810E-07
 -21.471  0.130E-06  0.828E-11  0.433E-07  0.864E-07
 -21.470  0.140E-06  0.864E-11  0.472E-07  0.927E-07
 -21.469  0.151E-06  0.909E-11  0.515E-07  0.999E-07
 -21.468  0.164E-06  0.963E-11  0.564E-07  0.108E-06
 -21.467  0.179E-06  0.103E-10  0.617E-07  0.117E-06
 -21.466  0.195E-06  0.110E-10  0.676E-07  0.127E-06
 -21.465  0.213E-06  0.118E-10  0.742E-07  0.139E-06
 -21.464  0.233E-06  0.128E-10  0.814E-07  0.152E-06
 -21.463  0.255E-06  0.138E-10  0.893E-07  0.166E-06
 -21.462  0.279E-06  0.150E-10  0.981E-07  0.181E-06
 -21.461  0.306E-06  0.163E-10  0.108E-06  0.198E-06
 -21.460  0.335E-06  0.178E-10  0.118E-06  0.217E-06
 -21.459  0.367E-06  0.194E-10  0.130E-06  0.238E-06
 -21.458  0.403E-06  0.212E-10  0.142E-06  0.260E-06
 -21.457  0.441E-06  0.232E-10  0.156E-06  0.285E-06
 -21.456  0.484E-06  0.253E-10  0.171E-06  0.312E-06
 -21.455  0.530E-06  0.277E-10  0.188E-06  0.342E-06
 -21.454  0.580E-06  0.302E-10  0.206E-06  0.374E-06
 -21.453  0.635E-06  0.331E-10  0.226E-06  0.410E-06
 -21.452  0.696E-06  0.361E-10  0.247E-06  0.448E-06
 -21.451  0.761E-06  0.395E-10  0.271E-06  0.491E-06
 -21.450  0.833E-06  0.432E-10  0.296E-06  0.537E-06
 -21.449  0.911E-06  0.472E-10  0.324E-06  0.587E-06
 -21.448  0.996E-06  0.515E-10  0.355E-06  0.641E-06
 -21.447  0.109E-05  0.563E-10  0.388E-06  0.700E-06
 -21.446  0.119E-05  0.615E-10  0.424E-06  0.765E-06
 -21.445  0.130E-05  0.671E-10  0.463E-06  0.835E-06
 -21.444  0.142E-05  0.732E-10  0.505E-06  0.911E-06
 -21.443  0.155E-05  0.798E-10  0.552E-06  0.994E-06
 -21.442  0.169E-05  0.870E-10  0.602E-06  0.108E-05
 -21.441  0.184E-05  0.948E-10  0.656E-06  0.118E-05
 -21.440  0.200E-05  0.103E-09  0.716E-06  0.129E-05
 -21.439  0.218E-05  0.112E-09  0.780E-06  0.140E-05
 -21.438  0.237E-05  0.122E-09  0.849E-06  0.153E-05
 -21.437  0.258E-05  0.133E-09  0.925E-06  0.166E-05
 -21.436  0.281E-05  0.145E-09  0.101E-05  0.181E-05
 -21.435  0.306E-05  0.157E-09  0.109E-05  0.196E-05
 -21.434  0.332E-05  0.171E-09  0.119E-05  0.213E-05
 -21.433  0.361E-05  0.186E-09  0.129E-05  0.232E-05
 -21.432  0.392E-05  0.202E-09  0.141E-05  0.252E-05
 -21.431  0.426E-05  0.219E-09  0.153E-05  0.273E-05
 -21.430  0.462E-05  0.237E-09  0.166E-05  0.296E-05
 -21.429  0.501E-05  0.257E-09  0.180E-05  0.321E-05
 -21.428  0.543E-05  0.279E-09  0.195E-05  0.348E-05
 -21.427  0.589E-05  0.302E-09  0.211E-05  0.377E-05
 -21.426  0.638E-05  0.327E-09  0.229E-05  0.408E-05
 -21.425  0.690E-05  0.354E-09  0.248E-05  0.442E-05
 -21.424  0.747E-05  0.383E-09  0.269E-05  0.478E-05
 -21.423  0.808E-05  0.414E-09  0.291E-05  0.517E-05
 -21.422  0.874E-05  0.448E-09  0.315E-05  0.559E-05
 -21.421  0.945E-05  0.484E-09  0.340E-05  0.604E-05
 -21.420  0.102E-04  0.523E-09  0.368E-05  0.653E-05
 -21.419  0.110E-04  0.564E-09  0.397E-05  0.705E-05
 -21.418  0.119E-04  0.609E-09  0.429E-05  0.761E-05
 -21.417  0.128E-04  0.657E-09  0.463E-05  0.821E-05
 -21.416  0.139E-04  0.708E-09  0.500E-05  0.885E-05
 -21.415  0.149E-04  0.764E-09  0.539E-05  0.954E-05
 -21.414  0.161E-04  0.823E-09  0.581E-05  0.103E-04
 -21.413  0.173E-04  0.886E-09  0.627E-05  0.111E-04
 -21.412  0.187E-04  0.953E-09  0.675E-05  0.119E-04
 -21.411  0.201E-04  0.103E-08  0.727E-05  0.128E-04
 -21.410  0.216E-04  0.110E-08  0.782E-05  0.138E-04
 -21.409  0.232E-04  0.119E-08  0.842E-05  0.148E-04
 -21.408  0.250E-04  0.127E-08  0.905E-05  0.159E-04
 -21.407  0.269E-04  0.137E-08  0.973E-05  0.171E-04
 -21.406  0.288E-04  0.147E-08  0.105E-04  0.184E-04
 -21.405  0.310E-04  0.158E-08  0.112E-04  0.197E-04
 -21.404  0.332E-04  0.169E-08  0.121E-04  0.212E-04
 -21.403  0.356E-04  0.181E-08  0.129E-04  0.227E-04
 -21.402  0.382E-04  0.194E-08  0.139E-04  0.243E-04
 -21.401  0.410E-04  0.208E-08  0.149E-04  0.261E-04
 -21.400  0.439E-04  0.223E-08  0.159E-04  0.279E-04
 -21.399  0.470E-04  0.239E-08  0.171E-04  0.299E-04
 -21.398  0.503E-04  0.256E-08  0.183E-04  0.320E-04
 -21.397  0.538E-04  0.273E-08  0.196E-04  0.342E-04
 -21.396  0.576E-04  0.292E-08  0.210E-04  0.366E-04
 -21.395  0.615E-04  0.312E-08  0.224E-04  0.391E-04
 -21.394  0.657E-04  0.334E-08  0.240E-04  0.418E-04
 -21.393  0.702E-04  0.356E-08  0.256E-04  0.446E-04
 -21.392  0.750E-04  0.380E-08  0.274E-04  0.476E-04
 -21.391  0.800E-04  0.406E-08  0.292E-04  0.508E-04
 -21.390  0.854E-04  0.432E-08  0.312E-04  0.542E-04
 -21.389  0.910E-04  0.461E-08  0.333E-04  0.578E-04
 -21.388  0.970E-04  0.491E-08  0.355E-04  0.615E-04
 -21.387  0.103E-03  0.523E-08  0.378E-04  0.656E-04
 -21.386  0.110E-03  0.557E-08  0.403E-04  0.698E-04
 -21.385  0.117E-03  0.592E-08  0.429E-04  0.743E-04
 -21.384  0.125E-03  0.630E-08  0.457E-04  0.790E-04
 -21.383  0.133E-03  0.670E-08  0.486E-04  0.840E-04
 -21.382  0.141E-03  0.712E-08  0.517E-04  0.893E-04
 -21.381  0.150E-03  0.756E-08  0.550E-04  0.949E-04
 -21.380  0.159E-03  0.803E-08  0.584E-04  0.101E-03
 -21.379  0.169E-03  0.852E-08  0.620E-04  0.107E-03