# E (eV)   ldos(E)   pdos(E)    pdos(E)    pdos(E)   
 -21.943  0.791E-05  0.791E-05  0.341E-12  0.341E-12
 -21.942  0.863E-05  0.863E-05  0.372E-12  0.372E-12
 -21.941  0.943E-05  0.943E-05  0.406E-12  0.406E-12
 -21.940  0.103E-04  0.103E-04  0.443E-12  0.443E-12
 -21.939  0.112E-04  0.112E-04  0.484E-12  0.484E-12
 -21.938  0.122E-04  0.122E-04  0.527E-12  0.527E-12
 -21.937  0.133E-04  0.133E-04  0.574E-12  0.574E-12
 -21.936  0.145E-04  0.145E-04  0.626E-12  0.626E-12
 -21.935  0.158E-04  0.158E-04  0.681E-12  0.681E-12
 -21.934  0.172E-04  0.172E-04  0.741E-12  0.741E-12
 -21.933  0.187E-04  0.187E-04  0.806E-12  0.806E-12
 -21.932  0.203E-04  0.203E-04  0.877E-12  0.877E-12
 -21.931  0.221E-04  0.221E-04  0.953E-12  0.953E-12
 -21.930  0.240E-04  0.240E-04  0.104E-11  0.104E-11
 -21.929  0.261E-04  0.261E-04  0.112E-11  0.112E-11
 -21.928  0.283E-04  0.283E-04  0.122E-11  0.122E-11
 -21.927  0.307E-04  0.307E-04  0.132E-11  0.132E-11
 -21.926  0.333E-04  0.333E-04  0.144E-11  0.144E-11
 -21.925  0.361E-04  0.361E-04  0.156E-11  0.156E-11
 -21.924  0.391E-04  0.391E-04  0.169E-11  0.169E-11
 -21.923  0.424E-04  0.424E-04  0.183E-11  0.183E-11
 -21.922  0.459E-04  0.459E-04  0.198E-11  0.198E-11
 -21.921  0.497E-04  0.497E-04  0.214E-11  0.214E-11
 -21.920  0.537E-04  0.537E-04  0.232E-11  0.232E-11
 -21.919  0.581E-04  0.581E-04  0.250E-11  0.250E-11
 -21.918  0.628E-04  0.628E-04  0.271E-11  0.271E-11
 -21.917  0.678E-04  0.678E-04  0.292E-11  0.292E-11
 -21.916  0.733E-04  0.733E-04  0.316E-11  0.316E-11
 -21.915  0.791E-04  0.791E-04  0.341E-11  0.341E-11
 -21.914  0.853E-04  0.853E-04  0.368E-11  0.368E-11
 -21.913  0.920E-04  0.920E-04  0.396E-11  0.396E-11
 -21.912  0.992E-04  0.992E-04  0.427E-11  0.427E-11
 -21.911  0.107E-03  0.107E-03  0.460E-11  0.460E-11
 -21.910  0.115E-03  0.115E-03  0.496E-11  0.496E-11
 -21.909  0.124E-03  0.124E-03  0.534E-11  0.534E-11
 -21.908  0.133E-03  0.133E-03  0.575E-11  0.575E-11
 -21.907  0.143E-03  0.143E-03  0.618E-11  0.618E-11
 -21.906  0.154E-03  0.154E-03  0.665E-11  0.665E-11
 -21.905  0.166E-03  0.166E-03  0.714E-11  0.714E-11
 -21.904  0.178E-03  0.178E-03  0.767E-11  0.767E-11
 -21.903  0.191E-03  0.191E-03  0.824E-11  0.824E-11
 -21.902  0.205E-03  0.205E-03  0.884E-11  0.884E-11
 -21.901  0.220E-03  0.220E-03  0.949E-11  0.949E-11
 -21.900  0.236E-03  0.236E-03  0.102E-10  0.102E-10
 -21.899  0.253E-03  0.253E-03  0.109E-10  0.109E-10
 -21.898  0.271E-03  0.271E-03  0.117E-10  0.117E-10
 -21.897  0.291E-03  0.291E-03  0.125E-10  0.125E-10
 -21.896  0.311E-03  0.311E-03  0.134E-10  0.134E-10
 -21.895  0.333E-03  0.333E-03  0.143E-10  0.143E-10
 -21.894  0.356E-03  0.356E-03  0.153E-10  0.153E-10
 -21.893  0.381E-03  0.381E-03  0.164E-10  0.164E-10
 -21.892  0.407E-03  0.407E-03  0.175E-10  0.175E-10
 -21.891  0.435E-03  0.435E-03  0.187E-10  0.187E-10
 -21.890  0.464E-03  0.464E-03  0.200E-10  0.200E-10
 -21.889  0.495E-03  0.495E-03  0.213E-10  0.213E-10
 -21.888  0.528E-03  0.528E-03  0.228E-10  0.228E-10
 -21.887  0.563E-03  0.563E-03  0.243E-10  0.243E-10
 -21.886  0.601E-03  0.601E-03  0.259E-10  0.259E-10
 -21.885  0.640E-03  0.640E-03  0.276E-10  0.276E-10
 -21.884  0.682E-03  0.682E-03  0.294E-10  0.294E-10
 -21.883  0.726E-03  0.726E-03  0.313E-10  0.313E-10
 -21.882  0.772E-03  0.772E-03  0.333E-10  0.333E-10
 -21.881  0.821E-03  0.821E-03  0.354E-10  0.354E-10
 -21.880  0.873E-03  0.873E-03  0.376E-10  0.376E-10
 -21.879  0.928E-03  0.928E-03  0.400E-10  0.400E-10
 -21.878  0.986E-03  0.986E-03  0.425E-10  0.425E-10
 -21.877  0.105E-02  0.105E-02  0.451E-10  0.451E-10
 -21.876  0.111E-02  0.111E-02  0.478E-10  0.478E-10
 -21.875  0.118E-02  0.118E-02  0.508E-10  0.508E-10
 -21.874  0.125E-02  0.125E-02  0.538E-10  0.538E-10
 -21.873  0.132E-02  0.132E-02  0.570E-10  0.570E-10
 -21.872  0.140E-02  0.140E-02  0.604E-10  0.604E-10
 -21.871  0.149E-02  0.149E-02  0.640E-10  0.640E-10
 -21.870  0.157E-02  0.157E-02  0.678E-10  0.678E-10
 -21.869  0.166E-02  0.166E-02  0.717E-10  0.717E-10
 -21.868  0.176E-02  0.176E-02  0.758E-10  0.758E-10
 -21.867  0.186E-02  0.186E-02  0.802E-10  0.802E-10
 -21.866  0.197E-02  0.197E-02  0.847E-10  0.847E-10
 -21.865  0.208E-02  0.208E-02  0.895E-10  0.895E-10
 -21.864  0.219E-02  0.219E-02  0.945E-10  0.945E-10
 -21.863  0.232E-02  0.232E-02  0.997E-10  0.997E-10
 -21.862  0.244E-02  0.244E-02  0.105E-09  0.105E-09
 -21.861  0.258E-02  0.258E-02  0.111E-09  0.111E-09
 -21.860  0.272E-02  0.272E-02  0.117E-09  0.117E-09
 -21.859  0.286E-02  0.286E-02  0.123E-09  0.123E-09
 -21.858  0.301E-02  0.301E-02  0.130E-09  0.130E-09
 -21.857  0.317E-02  0.317E-02  0.137E-09  0.137E-09
 -21.856  0.334E-02  0.334E-02  0.144E-09  0.144E-09
 -21.855  0.351E-02  0.351E-02  0.151E-09  0.151E-09
 -21.854  0.369E-02  0.369E-02  0.159E-09  0.159E-09
 -21.853  0.388E-02  0.388E-02  0.167E-09  0.167E-09
 -21.852  0.407E-02  0.407E-02  0.175E-09  0.175E-09
 -21.851  0.428E-02  0.428E-02  0.184E-09  0.184E-09
 -21.850  0.449E-02  0.449E-02  0.193E-09  0.193E-09
 -21.849  0.471E-02  0.471E-02  0.203E-09  0.203E-09
 -21.848  0.494E-02  0.494E-02  0.213E-09  0.213E-09
 -21.847  0.518E-02  0.518E-02  0.223E-09  0.223E-09
 -21.846  0.542E-02  0.542E-02  0.233E-09  0.233E-09
 -21.845  0.568E-02  0.568E-02  0.244E-09  0.244E-09
 -21.844  0.594E-02  0.594E-02  0.256E-09  0.256E-09
 -21.843  0.622E-02  0.622E-02  0.268E-09  0.268E-09
 -21.842  0.650E-02  0.650E-02  0.280E-09  0.280E-09
 -21.841  0.680E-02  0.680E-02  0.293E-09  0.293E-09
 -21.840  0.711E-02  0.711E-02  0.306E-09  0.306E-09
 -21.839  0.742E-02  0.742E-02  0.319E-09  0.319E-09
 -21.838  0.775E-02  0.775E-02  0.334E-09  0.334E-09
 -21.837  0.809E-02  0.809E-02  0.348E-09  0.348E-09
 -21.836  0.844E-02  0.844E-02  0.363E-09  0.363E-09
 -21.835  0.880E-02  0.880E-02  0.379E-09  0.379E-09
 -21.834  0.917E-02  0.917E-02  0.395E-09  0.395E-09
 -21.833  0.955E-02  0.955E-02  0.411E-09  0.411E-09
 -21.832  0.995E-02  0.995E-02  0.428E-09  0.428E-09
 -21.831  0.104E-01  0.104E-01  0.446E-09  0.446E-09
 -21.830  0.108E-01  0.108E-01  0.464E-09  0.464E-09
 -21.829  0.112E-01  0.112E-01  0.482E-09  0.482E-09
 -21.828  0.116E-01  0.116E-01  0.501E-09  0.501E-09
 -21.827  0.121E-01  0.121E-01  0.521E-09  0.521E-09
 -21.826  0.126E-01  0.126E-01  0.541E-09  0.541E-09
 -21.825  0.131E-01  0.131E-01  0.562E-09  0.562E-09
 -21.824  0.135E-01  0.135E-01  0.583E-09  0.583E-09
 -21.823  0.140E-01  0.140E-01  0.605E-09  0.605E-09
 -21.822  0.146E-01  0.146E-01  0.627E-09  0.627E-09
 -21.821  0.151E-01  0.151E-01  0.650E-09  0.650E-09
 -21.820  0.156E-01  0.156E-01  0.673E-09  0.673E-09
 -21.819  0.162E-01  0.162E-01  0.697E-09  0.697E-09
 -21.818  0.168E-01  0.168E-01  0.721E-09  0.721E-09
 -21.817  0.173E-01  0.173E-01  0.746E-09  0.746E-09
 -21.816  0.179E-01  0.179E-01  0.772E-09  0.772E-09
 -21.815  0.185E-01  0.185E-01  0.798E-09  0.798E-09
 -21.814  0.192E-01  0.192E-01  0.825E-09  0.825E-09
 -21.813  0.198E-01  0.198E-01  0.852E-09  0.852E-09
 -21.812  0.204E-01  0.204E-01  0.879E-09  0.879E-09
 -21.811  0.211E-01  0.211E-01  0.907E-09  0.907E-09
 -21.810  0.217E-01  0.217E-01  0.936E-09  0.936E-09
 -21.809  0.224E-01  0.224E-01  0.965E-09  0.965E-09
 -21.808  0.231E-01  0.231E-01  0.994E-09  0.994E-09
 -21.807  0.238E-01  0.238E-01  0.102E-08  0.102E-08
 -21.806  0.245E-01  0.245E-01  0.105E-08  0.105E-08
 -21.805  0.252E-01  0.252E-01  0.109E-08  0.109E-08
 -21.804  0.260E-01  0.260E-01  0.112E-08  0.112E-08
 -21.803  0.267E-01  0.267E-01  0.115E-08  0.115E-08
 -21.802  0.274E-01  0.274E-01  0.118E-08  0.118E-08
 -21.801  0.282E-01  0.282E-01  0.121E-08  0.121E-08
 -21.800  0.290E-01  0.290E-01  0.125E-08  0.125E-08
 -21.799  0.297E-01  0.297E-01  0.128E-08  0.128E-08
 -21.798  0.305E-01  0.305E-01  0.131E-08  0.131E-08
 -21.797  0.313E-01  0.313E-01  0.135E-08  0.135E-08
 -21.796  0.321E-01  0.321E-01  0.138E-08  0.138E-08
 -21.795  0.329E-01  0.329E-01  0.141E-08  0.141E-08
 -21.794  0.337E-01  0.337E-01  0.145E-08  0.145E-08
 -21.793  0.345E-01  0.345E-01  0.148E-08  0.148E-08
 -21.792  0.353E-01  0.353E-01  0.152E-08  0.152E-08
 -21.791  0.361E-01  0.361E-01  0.155E-08  0.155E-08
 -21.790  0.369E-01  0.369E-01  0.159E-08  0.159E-08
 -21.789  0.378E-01  0.378E-01  0.162E-08  0.162E-08
 -21.788  0.386E-01  0.386E-01  0.166E-08  0.166E-08
 -21.787  0.394E-01  0.394E-01  0.169E-08  0.169E-08
 -21.786  0.402E-01  0.402E-01  0.173E-08  0.173E-08
 -21.785  0.410E-01  0.410E-01  0.177E-08  0.177E-08
 -21.784  0.419E-01  0.419E-01  0.180E-08  0.180E-08
 -21.783  0.427E-01  0.427E-01  0.184E-08  0.184E-08
 -21.782  0.435E-01  0.435E-01  0.187E-08  0.187E-08
 -21.781  0.443E-01  0.443E-01  0.191E-08  0.191E-08
 -21.780  0.451E-01  0.451E-01  0.194E-08  0.194E-08
 -21.779  0.459E-01  0.459E-01  0.198E-08  0.198E-08
 -21.778  0.467E-01  0.467E-01  0.201E-08  0.201E-08
 -21.777  0.475E-01  0.475E-01  0.204E-08  0.204E-08
 -21.776  0.483E-01  0.483E-01  0.208E-08  0.208E-08
 -21.775  0.491E-01  0.491E-01  0.211E-08  0.211E-08
 -21.774  0.498E-01  0.498E-01  0.214E-08  0.214E-08
 -21.773  0.506E-01  0.506E-01  0.218E-08  0.218E-08
 -21.772  0.513E-01  0.513E-01  0.221E-08  0.221E-08
 -21.771  0.521E-01  0.521E-01  0.224E-08  0.224E-08
 -21.770  0.528E-01  0.528E-01  0.227E-08  0.227E-08
 -21.769  0.535E-01  0.535E-01  0.230E-08  0.230E-08
 -21.768  0.542E-01  0.542E-01  0.233E-08  0.233E-08
 -21.767  0.549E-01  0.549E-01  0.236E-08  0.236E-08
 -21.766  0.555E-01  0.555E-01  0.239E-08  0.239E-08
 -21.765  0.562E-01  0.562E-01  0.242E-08  0.242E-08
 -21.764  0.568E-01  0.568E-01  0.244E-08  0.244E-08
 -21.763  0.574E-01  0.574E-01  0.247E-08  0.247E-08
 -21.762  0.580E-01  0.580E-01  0.249E-08  0.249E-08
 -21.761  0.586E-01  0.586E-01  0.252E-08  0.252E-08
 -21.760  0.591E-01  0.591E-01  0.254E-08  0.254E-08
 -21.759  0.597E-01  0.597E-01  0.257E-08  0.257E-08
 -21.758  0.602E-01  0.602E-01  0.259E-08  0.259E-08
 -21.757  0.607E-01  0.607E-01  0.261E-08  0.261E-08
 -21.756  0.611E-01  0.611E-01  0.263E-08  0.263E-08
 -21.755  0.616E-01  0.616E-01  0.265E-08  0.265E-08
 -21.754  0.620E-01  0.620E-01  0.267E-08  0.267E-08
 -21.753  0.624E-01  0.624E-01  0.268E-08  0.268E-08
 -21.752  0.628E-01  0.628E-01  0.270E-08  0.270E-08
 -21.751  0.631E-01  0.631E-01  0.271E-08  0.271E-08
 -21.750  0.634E-01  0.634E-01  0.273E-08  0.273E-08
 -21.749  0.637E-01  0.637E-01  0.274E-08  0.274E-08
 -21.748  0.640E-01  0.640E-01  0.275E-08  0.275E-08
 -21.747  0.643E-01  0.643E-01  0.276E-08  0.276E-08
 -21.746  0.645E-01  0.645E-01  0.277E-08  0.277E-08
 -21.745  0.647E-01  0.647E-01  0.278E-08  0.278E-08
 -21.744  0.648E-01  0.648E-01  0.279E-08  0.279E-08
 -21.743  0.650E-01  0.650E-01  0.279E-08  0.279E-08
 -21.742  0.651E-01  0.651E-01  0.280E-08  0.280E-08
 -21.741  0.651E-01  0.651E-01  0.280E-08  0.280E-08
 -21.740  0.652E-01  0.652E-01  0.280E-08  0.280E-08
 -21.739  0.652E-01  0.652E-01  0.280E-08  0.280E-08
 -21.738  0.652E-01  0.652E-01  0.280E-08  0.280E-08
 -21.737  0.652E-01  0.652E-01  0.280E-08  0.280E-08
 -21.736  0.651E-01  0.651E-01  0.280E-08  0.280E-08
 -21.735  0.650E-01  0.650E-01  0.279E-08  0.279E-08
 -21.734  0.649E-01  0.649E-01  0.279E-08  0.279E-08
 -21.733  0.648E-01  0.648E-01  0.278E-08  0.278E-08
 -21.732  0.646E-01  0.646E-01  0.278E-08  0.278E-08
 -21.731  0.644E-01  0.644E-01  0.277E-08  0.277E-08
 -21.730  0.641E-01  0.641E-01  0.276E-08  0.276E-08
 -21.729  0.639E-01  0.639E-01  0.275E-08  0.275E-08
 -21.728  0.636E-01  0.636E-01  0.273E-08  0.273E-08
 -21.727  0.633E-01  0.633E-01  0.272E-08  0.272E-08
 -21.726  0.630E-01  0.630E-01  0.271E-08  0.271E-08
 -21.725  0.626E-01  0.626E-01  0.269E-08  0.269E-08
 -21.724  0.622E-01  0.622E-01  0.267E-08  0.267E-08
 -21.723  0.618E-01  0.618E-01  0.266E-08  0.266E-08
 -21.722  0.614E-01  0.614E-01  0.264E-08  0.264E-08
 -21.721  0.609E-01  0.609E-01  0.262E-08  0.262E-08
 -21.720  0.605E-01  0.605E-01  0.260E-08  0.260E-08
 -21.719  0.600E-01  0.600E-01  0.258E-08  0.258E-08
 -21.718  0.594E-01  0.594E-01  0.255E-08  0.255E-08
 -21.717  0.589E-01  0.589E-01  0.253E-08  0.253E-08
 -21.716  0.583E-01  0.583E-01  0.251E-08  0.251E-08
 -21.715  0.577E-01  0.577E-01  0.248E-08  0.248E-08
 -21.714  0.571E-01  0.571E-01  0.246E-08  0.246E-08
 -21.713  0.565E-01  0.565E-01  0.243E-08  0.243E-08
 -21.712  0.559E-01  0.559E-01  0.240E-08  0.240E-08
 -21.711  0.552E-01  0.552E-01  0.237E-08  0.237E-08
 -21.710  0.546E-01  0.546E-01  0.234E-08  0.234E-08
 -21.709  0.539E-01  0.539E-01  0.232E-08  0.232E-08
 -21.708  0.532E-01  0.532E-01  0.229E-08  0.229E-08
 -21.707  0.525E-01  0.525E-01  0.225E-08  0.225E-08
 -21.706  0.517E-01  0.517E-01  0.222E-08  0.222E-08
 -21.705  0.510E-01  0.510E-01  0.219E-08  0.219E-08
 -21.704  0.503E-01  0.503E-01  0.216E-08  0.216E-08
 -21.703  0.495E-01  0.495E-01  0.213E-08  0.213E-08
 -21.702  0.487E-01  0.487E-01  0.209E-08  0.209E-08
 -21.701  0.480E-01  0.480E-01  0.206E-08  0.206E-08
 -21.700  0.472E-01  0.472E-01  0.203E-08  0.203E-08
 -21.699  0.464E-01  0.464E-01  0.199E-08  0.199E-08
 -21.698  0.456E-01  0.456E-01  0.196E-08  0.196E-08
 -21.697  0.448E-01  0.448E-01  0.192E-08  0.192E-08
 -21.696  0.440E-01  0.440E-01  0.189E-08  0.189E-08
 -21.695  0.432E-01  0.432E-01  0.185E-08  0.185E-08
 -21.694  0.423E-01  0.423E-01  0.182E-08  0.182E-08
 -21.693  0.415E-01  0.415E-01  0.178E-08  0.178E-08
 -21.692  0.407E-01  0.407E-01  0.175E-08  0.175E-08
 -21.691  0.399E-01  0.399E-01  0.171E-08  0.171E-08
 -21.690  0.390E-01  0.390E-01  0.168E-08  0.168E-08
 -21.689  0.382E-01  0.382E-01  0.164E-08  0.164E-08
 -21.688  0.374E-01  0.374E-01  0.161E-08  0.161E-08
 -21.687  0.366E-01  0.366E-01  0.157E-08  0.157E-08
 -21.686  0.358E-01  0.358E-01  0.154E-08  0.154E-08
 -21.685  0.350E-01  0.350E-01  0.150E-08  0.150E-08
 -21.684  0.341E-01  0.341E-01  0.147E-08  0.147E-08
 -21.683  0.333E-01  0.333E-01  0.143E-08  0.143E-08
 -21.682  0.325E-01  0.325E-01  0.140E-08  0.140E-08
 -21.681  0.317E-01  0.317E-01  0.136E-08  0.136E-08
 -21.680  0.310E-01  0.310E-01  0.133E-08  0.133E-08
 -21.679  0.302E-01  0.302E-01  0.130E-08  0.130E-08
 -21.678  0.294E-01  0.294E-01  0.126E-08  0.126E-08
 -21.677  0.286E-01  0.286E-01  0.123E-08  0.123E-08
 -21.676  0.279E-01  0.279E-01  0.120E-08  0.120E-08
 -21.675  0.271E-01  0.271E-01  0.116E-08  0.116E-08
 -21.674  0.264E-01  0.264E-01  0.113E-08  0.113E-08
 -21.673  0.256E-01  0.256E-01  0.110E-08  0.110E-08
 -21.672  0.249E-01  0.249E-01  0.107E-08  0.107E-08
 -21.671  0.242E-01  0.242E-01  0.104E-08  0.104E-08
 -21.670  0.235E-01  0.235E-01  0.101E-08  0.101E-08
 -21.669  0.228E-01  0.228E-01  0.980E-09  0.980E-09
 -21.668  0.221E-01  0.221E-01  0.950E-09  0.950E-09
 -21.667  0.215E-01  0.215E-01  0.922E-09  0.922E-09
 -21.666  0.208E-01  0.208E-01  0.893E-09  0.893E-09
 -21.665  0.202E-01  0.202E-01  0.865E-09  0.865E-09
 -21.664  0.195E-01  0.195E-01  0.838E-09  0.838E-09
 -21.663  0.189E-01  0.189E-01  0.811E-09  0.811E-09
 -21.662  0.183E-01  0.183E-01  0.785E-09  0.785E-09
 -21.661  0.177E-01  0.177E-01  0.759E-09  0.759E-09
 -21.660  0.171E-01  0.171E-01  0.734E-09  0.734E-09
 -21.659  0.165E-01  0.165E-01  0.709E-09  0.709E-09
 -21.658  0.160E-01  0.160E-01  0.685E-09  0.685E-09
 -21.657  0.154E-01  0.154E-01  0.661E-09  0.661E-09
 -21.656  0.149E-01  0.149E-01  0.638E-09  0.638E-09
 -21.655  0.143E-01  0.143E-01  0.616E-09  0.616E-09
 -21.654  0.138E-01  0.138E-01  0.594E-09  0.594E-09
 -21.653  0.133E-01  0.133E-01  0.572E-09  0.572E-09
 -21.652  0.128E-01  0.128E-01  0.551E-09  0.551E-09
 -21.651  0.124E-01  0.124E-01  0.531E-09  0.531E-09
 -21.650  0.119E-01  0.119E-01  0.511E-09  0.511E-09
 -21.649  0.115E-01  0.115E-01  0.492E-09  0.492E-09
 -21.648  0.110E-01  0.110E-01  0.473E-09  0.473E-09
 -21.647  0.106E-01  0.106E-01  0.455E-09  0.455E-09
 -21.646  0.102E-01  0.102E-01  0.437E-09  0.437E-09
 -21.645  0.978E-02  0.978E-02  0.420E-09  0.420E-09
 -21.644  0.939E-02  0.939E-02  0.403E-09  0.403E-09
 -21.643  0.901E-02  0.901E-02  0.387E-09  0.387E-09
 -21.642  0.864E-02  0.864E-02  0.371E-09  0.371E-09
 -21.641  0.828E-02  0.828E-02  0.356E-09  0.356E-09
 -21.640  0.794E-02  0.794E-02  0.341E-09  0.341E-09
 -21.639  0.761E-02  0.761E-02  0.327E-09  0.327E-09
 -21.638  0.728E-02  0.728E-02  0.313E-09  0.313E-09
 -21.637  0.697E-02  0.697E-02  0.299E-09  0.299E-09
 -21.636  0.667E-02  0.667E-02  0.286E-09  0.286E-09
 -21.635  0.638E-02  0.638E-02  0.274E-09  0.274E-09
 -21.634  0.610E-02  0.610E-02  0.262E-09  0.262E-09
 -21.633  0.583E-02  0.583E-02  0.250E-09  0.250E-09
 -21.632  0.557E-02  0.557E-02  0.239E-09  0.239E-09
 -21.631  0.532E-02  0.532E-02  0.228E-09  0.228E-09
 -21.630  0.507E-02  0.507E-02  0.218E-09  0.218E-09
 -21.629  0.484E-02  0.484E-02  0.208E-09  0.208E-09
 -21.628  0.461E-02  0.461E-02  0.198E-09  0.198E-09
 -21.627  0.440E-02  0.440E-02  0.189E-09  0.189E-09
 -21.626  0.419E-02  0.419E-02  0.180E-09  0.180E-09
 -21.625  0.399E-02  0.399E-02  0.171E-09  0.171E-09
 -21.624  0.380E-02  0.380E-02  0.163E-09  0.163E-09
 -21.623  0.361E-02  0.361E-02  0.155E-09  0.155E-09
 -21.622  0.344E-02  0.344E-02  0.147E-09  0.147E-09
 -21.621  0.327E-02  0.327E-02  0.140E-09  0.140E-09
 -21.620  0.310E-02  0.310E-02  0.133E-09  0.133E-09
 -21.619  0.295E-02  0.295E-02  0.126E-09  0.126E-09
 -21.618  0.280E-02  0.280E-02  0.120E-09  0.120E-09
 -21.617  0.266E-02  0.266E-02  0.114E-09  0.114E-09
 -21.616  0.252E-02  0.252E-02  0.108E-09  0.108E-09
 -21.615  0.239E-02  0.239E-02  0.102E-09  0.102E-09
 -21.614  0.226E-02  0.226E-02  0.971E-10  0.971E-10
 -21.613  0.214E-02  0.214E-02  0.920E-10  0.920E-10
 -21.612  0.203E-02  0.203E-02  0.871E-10  0.871E-10
 -21.611  0.192E-02  0.192E-02  0.824E-10  0.824E-10
 -21.610  0.182E-02  0.182E-02  0.780E-10  0.780E-10
 -21.609  0.172E-02  0.172E-02  0.738E-10  0.738E-10
 -21.608  0.163E-02  0.163E-02  0.697E-10  0.697E-10
 -21.607  0.154E-02  0.154E-02  0.659E-10  0.659E-10
 -21.606  0.145E-02  0.145E-02  0.622E-10  0.622E-10
 -21.605  0.137E-02  0.137E-02  0.587E-10  0.587E-10
 -21.604  0.129E-02  0.129E-02  0.554E-10  0.554E-10
 -21.603  0.122E-02  0.122E-02  0.523E-10  0.523E-10
 -21.602  0.115E-02  0.115E-02  0.493E-10  0.493E-10
 -21.601  0.108E-02  0.108E-02  0.465E-10  0.465E-10
 -21.600  0.102E-02  0.102E-02  0.438E-10  0.438E-10
 -21.599  0.960E-03  0.960E-03  0.412E-10  0.412E-10
 -21.598  0.904E-03  0.904E-03  0.388E-10  0.388E-10
 -21.597  0.850E-03  0.850E-03  0.365E-10  0.365E-10
 -21.596  0.800E-03  0.800E-03  0.343E-10  0.343E-10
 -21.595  0.752E-03  0.752E-03  0.322E-10  0.322E-10
 -21.594  0.706E-03  0.706E-03  0.303E-10  0.303E-10
 -21.593  0.663E-03  0.663E-03  0.285E-10  0.285E-10
 -21.592  0.623E-03  0.623E-03  0.267E-10  0.267E-10
 -21.591  0.584E-03  0.584E-03  0.251E-10  0.251E-10
 -21.590  0.548E-03  0.548E-03  0.235E-10  0.235E-10
 -21.589  0.514E-03  0.514E-03  0.220E-10  0.220E-10
 -21.588  0.482E-03  0.482E-03  0.207E-10  0.207E-10
 -21.587  0.451E-03  0.451E-03  0.193E-10  0.193E-10
 -21.586  0.422E-03  0.422E-03  0.181E-10  0.181E-10
 -21.585  0.395E-03  0.395E-03  0.170E-10  0.170E-10
 -21.584  0.370E-03  0.370E-03  0.159E-10  0.159E-10
 -21.583  0.346E-03  0.346E-03  0.149E-10  0.149E-10
 -21.582  0.323E-03  0.323E-03  0.139E-10  0.139E-10
 -21.581  0.302E-03  0.302E-03  0.130E-10  0.130E-10
 -21.580  0.282E-03  0.282E-03  0.122E-10  0.122E-10
 -21.579  0.263E-03  0.263E-03  0.114E-10  0.114E-10
 -21.578  0.246E-03  0.246E-03  0.106E-10  0.106E-10
 -21.577  0.229E-03  0.229E-03  0.994E-11  0.994E-11
 -21.576  0.214E-03  0.214E-03  0.929E-11  0.929E-11
 -21.575  0.199E-03  0.199E-03  0.868E-11  0.868E-11
 -21.574  0.185E-03  0.185E-03  0.812E-11  0.812E-11
 -21.573  0.173E-03  0.173E-03  0.760E-11  0.760E-11
 -21.572  0.161E-03  0.161E-03  0.712E-11  0.712E-11
 -21.571  0.150E-03  0.150E-03  0.668E-11  0.668E-11
 -21.570  0.139E-03  0.139E-03  0.627E-11  0.627E-11
 -21.569  0.129E-03  0.129E-03  0.589E-11  0.589E-11
 -21.568  0.120E-03  0.120E-03  0.555E-11  0.555E-11
 -21.567  0.111E-03  0.111E-03  0.525E-11  0.525E-11
 -21.566  0.104E-03  0.104E-03  0.497E-11  0.497E-11
 -21.565  0.960E-04  0.960E-04  0.474E-11  0.474E-11
 -21.564  0.891E-04  0.891E-04  0.453E-11  0.453E-11
 -21.563  0.826E-04  0.826E-04  0.436E-11  0.436E-11
 -21.562  0.765E-04  0.765E-04  0.422E-11  0.422E-11
 -21.561  0.709E-04  0.709E-04  0.412E-11  0.412E-11
 -21.560  0.656E-04  0.656E-04  0.406E-11  0.406E-11
 -21.559  0.607E-04  0.607E-04  0.403E-11  0.403E-11
 -21.558  0.562E-04  0.562E-04  0.404E-11  0.404E-11
 -21.557  0.520E-04  0.520E-04  0.410E-11  0.410E-11
 -21.556  0.480E-04  0.480E-04  0.421E-11  0.421E-11
 -21.555  0.444E-04  0.444E-04  0.436E-11  0.436E-11
 -21.554  0.410E-04  0.410E-04  0.458E-11  0.458E-11
 -21.553  0.378E-04  0.378E-04  0.485E-11  0.485E-11
 -21.552  0.349E-04  0.349E-04  0.519E-11  0.519E-11
 -21.551  0.322E-04  0.322E-04  0.561E-11  0.561E-11
 -21.550  0.297E-04  0.297E-04  0.611E-11  0.611E-11
 -21.549  0.273E-04  0.273E-04  0.670E-11  0.670E-11
 -21.548  0.252E-04  0.252E-04  0.740E-11  0.740E-11
 -21.547  0.232E-04  0.232E-04  0.821E-11  0.821E-11
 -21.546  0.213E-04  0.213E-04  0.915E-11  0.915E-11
 -21.545  0.196E-04  0.196E-04  0.102E-10  0.102E-10
 -21.544  0.180E-04  0.180E-04  0.115E-10  0.115E-10
 -21.543  0.166E-04  0.166E-04  0.129E-10  0.129E-10
 -21.542  0.152E-04  0.152E-04  0.146E-10  0.146E-10
 -21.541  0.140E-04  0.140E-04  0.164E-10  0.164E-10
 -21.540  0.128E-04  0.128E-04  0.186E-10  0.186E-10
 -21.539  0.118E-04  0.118E-04  0.210E-10  0.210E-10
 -21.538  0.108E-04  0.108E-04  0.238E-10  0.238E-10
 -21.537  0.991E-05  0.991E-05  0.270E-10  0.270E-10
 -21.536  0.908E-05  0.908E-05  0.306E-10  0.306E-10
 -21.535  0.832E-05  0.832E-05  0.346E-10  0.346E-10
 -21.534  0.761E-05  0.761E-05  0.392E-10  0.392E-10
 -21.533  0.697E-05  0.697E-05  0.445E-10  0.445E-10
 -21.532  0.637E-05  0.637E-05  0.504E-10  0.504E-10
 -21.531  0.583E-05  0.583E-05  0.571E-10  0.571E-10
 -21.530  0.533E-05  0.533E-05  0.647E-10  0.647E-10
 -21.529  0.487E-05  0.487E-05  0.732E-10  0.732E-10
 -21.528  0.444E-05  0.444E-05  0.829E-10  0.829E-10
 -21.527  0.406E-05  0.406E-05  0.938E-10  0.938E-10
 -21.526  0.370E-05  0.370E-05  0.106E-09  0.106E-09
 -21.525  0.337E-05  0.337E-05  0.120E-09  0.120E-09
 -21.524  0.308E-05  0.308E-05  0.136E-09  0.136E-09
 -21.523  0.280E-05  0.280E-05  0.153E-09  0.153E-09
 -21.522  0.255E-05  0.255E-05  0.173E-09  0.173E-09
 -21.521  0.232E-05  0.232E-05  0.195E-09  0.195E-09
 -21.520  0.212E-05  0.211E-05  0.220E-09  0.220E-09
 -21.519  0.192E-05  0.192E-05  0.249E-09  0.249E-09
 -21.518  0.175E-05  0.175E-05  0.280E-09  0.280E-09
 -21.517  0.159E-05  0.159E-05  0.316E-09  0.316E-09
 -21.516  0.144E-05  0.144E-05  0.356E-09  0.356E-09
 -21.515  0.131E-05  0.131E-05  0.401E-09  0.401E-09
 -21.514  0.119E-05  0.119E-05  0.452E-09  0.452E-09
 -21.513  0.108E-05  0.108E-05  0.508E-09  0.508E-09
 -21.512  0.981E-06  0.979E-06  0.572E-09  0.572E-09
 -21.511  0.889E-06  0.888E-06  0.643E-09  0.643E-09
 -21.510  0.806E-06  0.805E-06  0.722E-09  0.722E-09
 -21.509  0.730E-06  0.729E-06  0.811E-09  0.811E-09
 -21.508  0.662E-06  0.660E-06  0.911E-09  0.911E-09
 -21.507  0.599E-06  0.597E-06  0.102E-08  0.102E-08
 -21.506  0.543E-06  0.540E-06  0.115E-08  0.115E-08
 -21.505  0.491E-06  0.489E-06  0.129E-08  0.129E-08
 -21.504  0.445E-06  0.442E-06  0.144E-08  0.144E-08
 -21.503  0.402E-06  0.399E-06  0.162E-08  0.162E-08
 -21.502  0.364E-06  0.361E-06  0.181E-08  0.181E-08
 -21.501  0.330E-06  0.326E-06  0.203E-08  0.203E-08
 -21.500  0.298E-06  0.294E-06  0.227E-08  0.227E-08
 -21.499  0.270E-06  0.265E-06  0.254E-08  0.254E-08
 -21.498  0.245E-06  0.239E-06  0.284E-08  0.284E-08
 -21.497  0.222E-06  0.216E-06  0.317E-08  0.317E-08
 -21.496  0.202E-06  0.195E-06  0.354E-08  0.354E-08
 -21.495  0.184E-06  0.176E-06  0.395E-08  0.395E-08
 -21.494  0.167E-06  0.159E-06  0.441E-08  0.441E-08
 -21.493  0.153E-06  0.143E-06  0.492E-08  0.492E-08
 -21.492  0.140E-06  0.129E-06  0.549E-08  0.549E-08
 -21.491  0.129E-06  0.117E-06  0.612E-08  0.612E-08
 -21.490  0.119E-06  0.105E-06  0.682E-08  0.682E-08
 -21.489  0.110E-06  0.952E-07  0.759E-08  0.759E-08
 -21.488  0.103E-06  0.862E-07  0.845E-08  0.845E-08
 -21.487  0.969E-07  0.781E-07  0.941E-08  0.941E-08
 -21.486  0.919E-07  0.710E-07  0.105E-07  0.105E-07
 -21.485  0.879E-07  0.646E-07  0.116E-07  0.116E-07
 -21.484  0.849E-07  0.590E-07  0.129E-07  0.129E-07
 -21.483  0.828E-07  0.541E-07  0.144E-07  0.144E-07
 -21.482  0.817E-07  0.498E-07  0.160E-07  0.160E-07
 -21.481  0.815E-07  0.461E-07  0.177E-07  0.177E-07
 -21.480  0.822E-07  0.429E-07  0.196E-07  0.196E-07
 -21.479  0.838E-07  0.403E-07  0.218E-07  0.218E-07
 -21.478  0.864E-07  0.381E-07  0.242E-07  0.242E-07
 -21.477  0.898E-07  0.363E-07  0.268E-07  0.268E-07
 -21.476  0.942E-07  0.350E-07  0.296E-07  0.296E-07
 -21.475  0.996E-07  0.340E-07  0.328E-07  0.328E-07
 -21.474  0.106E-06  0.334E-07  0.363E-07  0.363E-07
 -21.473  0.114E-06  0.333E-07  0.402E-07  0.402E-07
 -21.472  0.122E-06  0.334E-07  0.444E-07  0.444E-07
 -21.471  0.132E-06  0.340E-07  0.491E-07  0.491E-07
 -21.470  0.143E-06  0.349E-07  0.542E-07  0.542E-07
 -21.469  0.156E-06  0.361E-07  0.599E-07  0.599E-07
 -21.468  0.170E-06  0.378E-07  0.661E-07  0.661E-07
 -21.467  0.186E-06  0.398E-07  0.729E-07  0.729E-07
 -21.466  0.203E-06  0.422E-07  0.804E-07  0.804E-07
 -21.465  0.222E-06  0.449E-07  0.887E-07  0.887E-07
 -21.464  0.244E-06  0.482E-07  0.977E-07  0.977E-07
 -21.463  0.267E-06  0.518E-07  0.108E-06  0.108E-06
 -21.462  0.293E-06  0.560E-07  0.119E-06  0.119E-06
 -21.461  0.321E-06  0.606E-07  0.130E-06  0.130E-06
 -21.460  0.353E-06  0.658E-07  0.143E-06  0.143E-06
 -21.459  0.387E-06  0.715E-07  0.158E-06  0.158E-06
 -21.458  0.425E-06  0.778E-07  0.173E-06  0.173E-06
 -21.457  0.466E-06  0.848E-07  0.190E-06  0.190E-06
 -21.456  0.511E-06  0.925E-07  0.209E-06  0.209E-06
 -21.455  0.560E-06  0.101E-06  0.230E-06  0.230E-06
 -21.454  0.614E-06  0.110E-06  0.252E-06  0.252E-06
 -21.453  0.673E-06  0.120E-06  0.276E-06  0.276E-06
 -21.452  0.737E-06  0.131E-06  0.303E-06  0.303E-06
 -21.451  0.807E-06  0.144E-06  0.332E-06  0.332E-06
 -21.450  0.884E-06  0.157E-06  0.364E-06  0.364E-06
 -21.449  0.967E-06  0.171E-06  0.398E-06  0.398E-06
 -21.448  0.106E-05  0.187E-06  0.436E-06  0.436E-06
 -21.447  0.116E-05  0.204E-06  0.477E-06  0.477E-06
 -21.446  0.126E-05  0.222E-06  0.521E-06  0.521E-06
 -21.445  0.138E-05  0.243E-06  0.570E-06  0.570E-06
 -21.444  0.151E-05  0.265E-06  0.622E-06  0.622E-06
 -21.443  0.165E-05  0.288E-06  0.680E-06  0.680E-06
 -21.442  0.180E-05  0.314E-06  0.742E-06  0.742E-06
 -21.441  0.196E-05  0.342E-06  0.810E-06  0.810E-06
 -21.440  0.214E-05  0.373E-06  0.883E-06  0.883E-06
 -21.439  0.233E-05  0.406E-06  0.963E-06  0.963E-06
 -21.438  0.254E-05  0.441E-06  0.105E-05  0.105E-05
 -21.437  0.277E-05  0.480E-06  0.114E-05  0.114E-05
 -21.436  0.301E-05  0.521E-06  0.124E-05  0.124E-05
 -21.435  0.328E-05  0.567E-06  0.135E-05  0.135E-05
 -21.434  0.356E-05  0.615E-06  0.147E-05  0.147E-05
 -21.433  0.387E-05  0.668E-06  0.160E-05  0.160E-05
 -21.432  0.421E-05  0.725E-06  0.174E-05  0.174E-05
 -21.431  0.457E-05  0.786E-06  0.189E-05  0.189E-05
 -21.430  0.496E-05  0.853E-06  0.206E-05  0.206E-05
 -21.429  0.539E-05  0.924E-06  0.223E-05  0.223E-05
 -21.428  0.584E-05  0.100E-05  0.242E-05  0.242E-05
 -21.427  0.634E-05  0.108E-05  0.263E-05  0.263E-05
 -21.426  0.687E-05  0.117E-05  0.285E-05  0.285E-05
 -21.425  0.744E-05  0.127E-05  0.309E-05  0.309E-05
 -21.424  0.806E-05  0.137E-05  0.334E-05  0.334E-05
 -21.423  0.872E-05  0.148E-05  0.362E-05  0.362E-05
 -21.422  0.944E-05  0.160E-05  0.392E-05  0.392E-05
 -21.421  0.102E-04  0.173E-05  0.424E-05  0.424E-05
 -21.420  0.110E-04  0.187E-05  0.458E-05  0.458E-05
 -21.419  0.119E-04  0.202E-05  0.496E-05  0.496E-05
 -21.418  0.129E-04  0.218E-05  0.536E-05  0.536E-05
 -21.417  0.139E-04  0.235E-05  0.578E-05  0.578E-05
 -21.416  0.150E-04  0.253E-05  0.624E-05  0.624E-05
 -21.415  0.162E-04  0.272E-05  0.674E-05  0.674E-05
 -21.414  0.175E-04  0.293E-05  0.727E-05  0.727E-05
 -21.413  0.188E-04  0.316E-05  0.784E-05  0.784E-05
 -21.412  0.203E-04  0.340E-05  0.845E-05  0.845E-05
 -21.411  0.219E-04  0.365E-05  0.910E-05  0.910E-05
 -21.410  0.235E-04  0.393E-05  0.980E-05  0.980E-05
 -21.409  0.253E-04  0.422E-05  0.106E-04  0.106E-04
 -21.408  0.272E-04  0.453E-05  0.114E-04  0.114E-04
 -21.407  0.293E-04  0.487E-05  0.122E-04  0.122E-04
 -21.406  0.315E-04  0.522E-05  0.131E-04  0.131E-04
 -21.405  0.338E-04  0.560E-05  0.141E-04  0.141E-04
 -21.404  0.363E-04  0.601E-05  0.152E-04  0.152E-04
 -21.403  0.390E-04  0.644E-05  0.163E-04  0.163E-04
 -21.402  0.418E-04  0.690E-05  0.175E-04  0.175E-04
 -21.401  0.449E-04  0.738E-05  0.187E-04  0.187E-04
 -21.400  0.481E-04  0.790E-05  0.201E-04  0.201E-04
 -21.399  0.515E-04  0.846E-05  0.215E-04  0.215E-04
 -21.398  0.552E-04  0.904E-05  0.231E-04  0.231E-04
 -21.397  0.591E-04  0.967E-05  0.247E-04  0.247E-04
 -21.396  0.632E-04  0.103E-04  0.265E-04  0.265E-04
 -21.395  0.677E-04  0.110E-04  0.283E-04  0.283E-04
 -21.394  0.723E-04  0.118E-04  0.303E-04  0.303E-04
 -21.393  0.773E-04  0.126E-04  0.324E-04  0.324E-04
 -21.392  0.826E-04  0.134E-04  0.346E-04  0.346E-04
 -21.391  0.882E-04  0.143E-04  0.370E-04  0.370E-04
 -21.390  0.942E-04  0.152E-04  0.395E-04  0.395E-04
 -21.389  0.101E-03  0.162E-04  0.421E-04  0.421E-04
 -21.388  0.107E-03  0.173E-04  0.450E-04  0.450E-04
 -21.387  0.114E-03  0.184E-04  0.480E-04  0.480E-04
 -21.386  0.122E-03  0.196E-04  0.511E-04  0.511E-04
 -21.385  0.130E-03  0.208E-04  0.545E-04  0.545E-04
 -21.384  0.138E-03  0.221E-04  0.580E-04  0.580E-04
 -21.383  0.147E-03  0.235E-04  0.618E-04  0.618E-04
 -21.382  0.156E-03  0.250E-04  0.658E-04  0.658E-04
 -21.381  0.166E-03  0.265E-04  0.700E-04  0.700E-04
 -21.380  0.177E-03  0.281E-04  0.744E-04  0.744E-04
 -21.379  0.188E-03  0.298E-04  0.791E-04  0.791E-04