# E (eV)   ldos(E)   pdos(E)   
 -21.739  0.000E+00  0.000E+00
 -21.738  0.000E+00  0.000E+00
 -21.737  0.000E+00  0.000E+00
 -21.736  0.000E+00  0.000E+00
 -21.735  0.000E+00  0.000E+00
 -21.734  0.000E+00  0.000E+00
 -21.733  0.000E+00  0.000E+00
 -21.732  0.000E+00  0.000E+00
 -21.731  0.000E+00  0.000E+00
 -21.730  0.000E+00  0.000E+00
 -21.729  0.000E+00  0.000E+00
 -21.728  0.000E+00  0.000E+00
 -21.727  0.000E+00  0.000E+00
 -21.726  0.000E+00  0.000E+00
 -21.725  0.000E+00  0.000E+00
 -21.724  0.000E+00  0.000E+00
 -21.723  0.000E+00  0.000E+00
 -21.722  0.000E+00  0.000E+00
 -21.721  0.000E+00  0.000E+00
 -21.720  0.000E+00  0.000E+00
 -21.719  0.000E+00  0.000E+00
 -21.718  0.000E+00  0.000E+00
 -21.717  0.000E+00  0.000E+00
 -21.716  0.000E+00  0.000E+00
 -21.715  0.000E+00  0.000E+00
 -21.714  0.000E+00  0.000E+00
 -21.713  0.000E+00  0.000E+00
 -21.712  0.000E+00  0.000E+00
 -21.711  0.000E+00  0.000E+00
 -21.710  0.000E+00  0.000E+00
 -21.709  0.000E+00  0.000E+00
 -21.708  0.000E+00  0.000E+00
 -21.707  0.000E+00  0.000E+00
 -21.706  0.000E+00  0.000E+00
 -21.705  0.000E+00  0.000E+00
 -21.704  0.000E+00  0.000E+00
 -21.703  0.000E+00  0.000E+00
 -21.702  0.000E+00  0.000E+00
 -21.701  0.000E+00  0.000E+00
 -21.700  0.000E+00  0.000E+00
 -21.699  0.000E+00  0.000E+00
 -21.698  0.000E+00  0.000E+00
 -21.697  0.000E+00  0.000E+00
 -21.696  0.000E+00  0.000E+00
 -21.695  0.000E+00  0.000E+00
 -21.694  0.000E+00  0.000E+00
 -21.693  0.000E+00  0.000E+00
 -21.692  0.000E+00  0.000E+00
 -21.691  0.000E+00  0.000E+00
 -21.690  0.000E+00  0.000E+00
 -21.689  0.000E+00  0.000E+00
 -21.688  0.000E+00  0.000E+00
 -21.687  0.000E+00  0.000E+00
 -21.686  0.000E+00  0.000E+00
 -21.685  0.000E+00  0.000E+00
 -21.684  0.000E+00  0.000E+00
 -21.683  0.000E+00  0.000E+00
 -21.682  0.000E+00  0.000E+00
 -21.681  0.000E+00  0.000E+00
 -21.680  0.000E+00  0.000E+00
 -21.679  0.000E+00  0.000E+00
 -21.678  0.000E+00  0.000E+00
 -21.677  0.000E+00  0.000E+00
 -21.676  0.000E+00  0.000E+00
 -21.675  0.000E+00  0.000E+00
 -21.674  0.000E+00  0.000E+00
 -21.673  0.000E+00  0.000E+00
 -21.672  0.000E+00  0.000E+00
 -21.671  0.000E+00  0.000E+00
 -21.670  0.000E+00  0.000E+00
 -21.669  0.000E+00  0.000E+00
 -21.668  0.000E+00  0.000E+00
 -21.667  0.000E+00  0.000E+00
 -21.666  0.000E+00  0.000E+00
 -21.665  0.000E+00  0.000E+00
 -21.664  0.000E+00  0.000E+00
 -21.663  0.000E+00  0.000E+00
 -21.662  0.000E+00  0.000E+00
 -21.661  0.000E+00  0.000E+00
 -21.660  0.000E+00  0.000E+00
 -21.659  0.000E+00  0.000E+00
 -21.658  0.000E+00  0.000E+00
 -21.657  0.000E+00  0.000E+00
 -21.656  0.000E+00  0.000E+00
 -21.655  0.000E+00  0.000E+00
 -21.654  0.000E+00  0.000E+00
 -21.653  0.000E+00  0.000E+00
 -21.652  0.000E+00  0.000E+00
 -21.651  0.000E+00  0.000E+00
 -21.650  0.000E+00  0.000E+00
 -21.649  0.000E+00  0.000E+00
 -21.648  0.000E+00  0.000E+00
 -21.647  0.000E+00  0.000E+00
 -21.646  0.000E+00  0.000E+00
 -21.645  0.000E+00  0.000E+00
 -21.644  0.000E+00  0.000E+00
 -21.643  0.000E+00  0.000E+00
 -21.642  0.000E+00  0.000E+00
 -21.641  0.000E+00  0.000E+00
 -21.640  0.000E+00  0.000E+00
 -21.639  0.000E+00  0.000E+00
 -21.638  0.000E+00  0.000E+00
 -21.637  0.000E+00  0.000E+00
 -21.636  0.000E+00  0.000E+00
 -21.635  0.000E+00  0.000E+00
 -21.634  0.000E+00  0.000E+00
 -21.633  0.000E+00  0.000E+00
 -21.632  0.000E+00  0.000E+00
 -21.631  0.000E+00  0.000E+00
 -21.630  0.000E+00  0.000E+00
 -21.629  0.000E+00  0.000E+00
 -21.628  0.000E+00  0.000E+00
 -21.627  0.000E+00  0.000E+00
 -21.626  0.000E+00  0.000E+00
 -21.625  0.000E+00  0.000E+00
 -21.624  0.000E+00  0.000E+00
 -21.623  0.000E+00  0.000E+00
 -21.622  0.000E+00  0.000E+00
 -21.621  0.000E+00  0.000E+00
 -21.620  0.000E+00  0.000E+00
 -21.619  0.000E+00  0.000E+00
 -21.618  0.000E+00  0.000E+00
 -21.617  0.000E+00  0.000E+00
 -21.616  0.000E+00  0.000E+00
 -21.615  0.000E+00  0.000E+00
 -21.614  0.000E+00  0.000E+00
 -21.613  0.000E+00  0.000E+00
 -21.612  0.000E+00  0.000E+00
 -21.611  0.000E+00  0.000E+00
 -21.610  0.000E+00  0.000E+00
 -21.609  0.000E+00  0.000E+00
 -21.608  0.000E+00  0.000E+00
 -21.607  0.000E+00  0.000E+00
 -21.606  0.000E+00  0.000E+00
 -21.605  0.000E+00  0.000E+00
 -21.604  0.000E+00  0.000E+00
 -21.603  0.000E+00  0.000E+00
 -21.602  0.000E+00  0.000E+00
 -21.601  0.000E+00  0.000E+00
 -21.600  0.000E+00  0.000E+00
 -21.599  0.000E+00  0.000E+00
 -21.598  0.000E+00  0.000E+00
 -21.597  0.000E+00  0.000E+00
 -21.596  0.000E+00  0.000E+00
 -21.595  0.000E+00  0.000E+00
 -21.594  0.000E+00  0.000E+00
 -21.593  0.000E+00  0.000E+00
 -21.592  0.000E+00  0.000E+00
 -21.591  0.000E+00  0.000E+00
 -21.590  0.000E+00  0.000E+00
 -21.589  0.000E+00  0.000E+00
 -21.588  0.000E+00  0.000E+00
 -21.587  0.000E+00  0.000E+00
 -21.586  0.000E+00  0.000E+00
 -21.585  0.000E+00  0.000E+00
 -21.584  0.000E+00  0.000E+00
 -21.583  0.000E+00  0.000E+00
 -21.582  0.000E+00  0.000E+00
 -21.581  0.000E+00  0.000E+00
 -21.580  0.000E+00  0.000E+00
 -21.579  0.000E+00  0.000E+00
 -21.578  0.000E+00  0.000E+00
 -21.577  0.000E+00  0.000E+00
 -21.576  0.000E+00  0.000E+00
 -21.575  0.000E+00  0.000E+00
 -21.574  0.000E+00  0.000E+00
 -21.573  0.000E+00  0.000E+00
 -21.572  0.000E+00  0.000E+00
 -21.571  0.000E+00  0.000E+00
 -21.570  0.000E+00  0.000E+00
 -21.569  0.000E+00  0.000E+00
 -21.568  0.000E+00  0.000E+00
 -21.567  0.000E+00  0.000E+00
 -21.566  0.000E+00  0.000E+00
 -21.565  0.000E+00  0.000E+00
 -21.564  0.000E+00  0.000E+00
 -21.563  0.000E+00  0.000E+00
 -21.562  0.000E+00  0.000E+00
 -21.561  0.000E+00  0.000E+00
 -21.560  0.000E+00  0.000E+00
 -21.559  0.000E+00  0.000E+00
 -21.558  0.000E+00  0.000E+00
 -21.557  0.000E+00  0.000E+00
 -21.556  0.000E+00  0.000E+00
 -21.555  0.000E+00  0.000E+00
 -21.554  0.000E+00  0.000E+00
 -21.553  0.000E+00  0.000E+00
 -21.552  0.000E+00  0.000E+00
 -21.551  0.000E+00  0.000E+00
 -21.550  0.000E+00  0.000E+00
 -21.549  0.000E+00  0.000E+00
 -21.548  0.000E+00  0.000E+00
 -21.547  0.000E+00  0.000E+00
 -21.546  0.000E+00  0.000E+00
 -21.545  0.000E+00  0.000E+00
 -21.544  0.000E+00  0.000E+00
 -21.543  0.000E+00  0.000E+00
 -21.542  0.000E+00  0.000E+00
 -21.541  0.000E+00  0.000E+00
 -21.540  0.000E+00  0.000E+00
 -21.539  0.000E+00  0.000E+00
 -21.538  0.000E+00  0.000E+00
 -21.537  0.000E+00  0.000E+00
 -21.536  0.000E+00  0.000E+00
 -21.535  0.000E+00  0.000E+00
 -21.534  0.000E+00  0.000E+00
 -21.533  0.000E+00  0.000E+00
 -21.532  0.000E+00  0.000E+00
 -21.531  0.000E+00  0.000E+00
 -21.530  0.000E+00  0.000E+00
 -21.529  0.000E+00  0.000E+00
 -21.528  0.000E+00  0.000E+00
 -21.527  0.000E+00  0.000E+00
 -21.526  0.000E+00  0.000E+00
 -21.525  0.000E+00  0.000E+00
 -21.524  0.000E+00  0.000E+00
 -21.523  0.000E+00  0.000E+00
 -21.522  0.000E+00  0.000E+00
 -21.521  0.000E+00  0.000E+00
 -21.520  0.000E+00  0.000E+00
 -21.519  0.000E+00  0.000E+00
 -21.518  0.000E+00  0.000E+00
 -21.517  0.000E+00  0.000E+00
 -21.516  0.000E+00  0.000E+00
 -21.515  0.000E+00  0.000E+00
 -21.514  0.000E+00  0.000E+00
 -21.513  0.000E+00  0.000E+00
 -21.512  0.000E+00  0.000E+00
 -21.511  0.000E+00  0.000E+00
 -21.510  0.000E+00  0.000E+00
 -21.509  0.000E+00  0.000E+00
 -21.508  0.000E+00  0.000E+00
 -21.507  0.000E+00  0.000E+00
 -21.506  0.000E+00  0.000E+00
 -21.505  0.000E+00  0.000E+00
 -21.504  0.000E+00  0.000E+00
 -21.503  0.000E+00  0.000E+00
 -21.502  0.000E+00  0.000E+00
 -21.501  0.000E+00  0.000E+00
 -21.500  0.000E+00  0.000E+00
 -21.499  0.000E+00  0.000E+00
 -21.498  0.000E+00  0.000E+00
 -21.497  0.000E+00  0.000E+00
 -21.496  0.000E+00  0.000E+00
 -21.495  0.000E+00  0.000E+00
 -21.494  0.000E+00  0.000E+00
 -21.493  0.000E+00  0.000E+00
 -21.492  0.000E+00  0.000E+00
 -21.491  0.000E+00  0.000E+00
 -21.490  0.000E+00  0.000E+00
 -21.489  0.000E+00  0.000E+00
 -21.488  0.000E+00  0.000E+00
 -21.487  0.000E+00  0.000E+00
 -21.486  0.000E+00  0.000E+00
 -21.485  0.000E+00  0.000E+00
 -21.484  0.000E+00  0.000E+00
 -21.483  0.000E+00  0.000E+00
 -21.482  0.000E+00  0.000E+00
 -21.481  0.000E+00  0.000E+00
 -21.480  0.000E+00  0.000E+00
 -21.479  0.000E+00  0.000E+00
 -21.478  0.000E+00  0.000E+00
 -21.477  0.000E+00  0.000E+00
 -21.476  0.000E+00  0.000E+00
 -21.475  0.000E+00  0.000E+00
 -21.474  0.000E+00  0.000E+00
 -21.473  0.000E+00  0.000E+00
 -21.472  0.000E+00  0.000E+00
 -21.471  0.000E+00  0.000E+00
 -21.470  0.000E+00  0.000E+00
 -21.469  0.000E+00  0.000E+00
 -21.468  0.000E+00  0.000E+00
 -21.467  0.000E+00  0.000E+00
 -21.466  0.000E+00  0.000E+00
 -21.465  0.000E+00  0.000E+00
 -21.464  0.000E+00  0.000E+00
 -21.463  0.000E+00  0.000E+00
 -21.462  0.000E+00  0.000E+00
 -21.461  0.000E+00  0.000E+00
 -21.460  0.000E+00  0.000E+00
 -21.459  0.000E+00  0.000E+00
 -21.458  0.000E+00  0.000E+00
 -21.457  0.000E+00  0.000E+00
 -21.456  0.000E+00  0.000E+00
 -21.455  0.000E+00  0.000E+00
 -21.454  0.000E+00  0.000E+00
 -21.453  0.000E+00  0.000E+00
 -21.452  0.000E+00  0.000E+00
 -21.451  0.000E+00  0.000E+00
 -21.450  0.000E+00  0.000E+00
 -21.449  0.000E+00  0.000E+00
 -21.448  0.000E+00  0.000E+00
 -21.447  0.000E+00  0.000E+00
 -21.446  0.000E+00  0.000E+00
 -21.445  0.000E+00  0.000E+00
 -21.444  0.000E+00  0.000E+00
 -21.443  0.000E+00  0.000E+00
 -21.442  0.000E+00  0.000E+00
 -21.441  0.000E+00  0.000E+00
 -21.440  0.000E+00  0.000E+00
 -21.439  0.000E+00  0.000E+00
 -21.438  0.000E+00  0.000E+00
 -21.437  0.000E+00  0.000E+00
 -21.436  0.000E+00  0.000E+00
 -21.435  0.000E+00  0.000E+00
 -21.434  0.000E+00  0.000E+00
 -21.433  0.000E+00  0.000E+00
 -21.432  0.000E+00  0.000E+00
 -21.431  0.000E+00  0.000E+00
 -21.430  0.000E+00  0.000E+00
 -21.429  0.000E+00  0.000E+00
 -21.428  0.000E+00  0.000E+00
 -21.427  0.000E+00  0.000E+00
 -21.426  0.000E+00  0.000E+00
 -21.425  0.000E+00  0.000E+00
 -21.424  0.000E+00  0.000E+00
 -21.423  0.000E+00  0.000E+00
 -21.422  0.000E+00  0.000E+00
 -21.421  0.000E+00  0.000E+00
 -21.420  0.000E+00  0.000E+00
 -21.419  0.000E+00  0.000E+00
 -21.418  0.000E+00  0.000E+00
 -21.417  0.000E+00  0.000E+00
 -21.416  0.000E+00  0.000E+00
 -21.415  0.000E+00  0.000E+00
 -21.414  0.000E+00  0.000E+00
 -21.413  0.000E+00  0.000E+00
 -21.412  0.000E+00  0.000E+00
 -21.411  0.000E+00  0.000E+00
 -21.410  0.000E+00  0.000E+00
 -21.409  0.000E+00  0.000E+00
 -21.408  0.000E+00  0.000E+00
 -21.407  0.000E+00  0.000E+00
 -21.406  0.000E+00  0.000E+00
 -21.405  0.000E+00  0.000E+00
 -21.404  0.000E+00  0.000E+00
 -21.403  0.000E+00  0.000E+00
 -21.402  0.000E+00  0.000E+00
 -21.401  0.000E+00  0.000E+00
 -21.400  0.000E+00  0.000E+00
 -21.399  0.000E+00  0.000E+00
 -21.398  0.000E+00  0.000E+00
 -21.397  0.000E+00  0.000E+00
 -21.396  0.000E+00  0.000E+00
 -21.395  0.000E+00  0.000E+00
 -21.394  0.000E+00  0.000E+00
 -21.393  0.000E+00  0.000E+00
 -21.392  0.000E+00  0.000E+00
 -21.391  0.000E+00  0.000E+00
 -21.390  0.000E+00  0.000E+00
 -21.389  0.000E+00  0.000E+00
 -21.388  0.000E+00  0.000E+00
 -21.387  0.000E+00  0.000E+00
 -21.386  0.000E+00  0.000E+00
 -21.385  0.000E+00  0.000E+00
 -21.384  0.000E+00  0.000E+00
 -21.383  0.000E+00  0.000E+00
 -21.382  0.000E+00  0.000E+00
 -21.381  0.000E+00  0.000E+00
 -21.380  0.000E+00  0.000E+00
 -21.379  0.000E+00  0.000E+00
 -21.378  0.000E+00  0.000E+00
 -21.377  0.000E+00  0.000E+00
 -21.376  0.000E+00  0.000E+00
 -21.375  0.000E+00  0.000E+00
 -21.374  0.000E+00  0.000E+00
 -21.373  0.000E+00  0.000E+00
 -21.372  0.000E+00  0.000E+00
 -21.371  0.000E+00  0.000E+00
 -21.370  0.000E+00  0.000E+00
 -21.369  0.000E+00  0.000E+00
 -21.368  0.000E+00  0.000E+00
 -21.367  0.000E+00  0.000E+00
 -21.366  0.000E+00  0.000E+00
 -21.365  0.000E+00  0.000E+00
 -21.364  0.000E+00  0.000E+00
 -21.363  0.000E+00  0.000E+00
 -21.362  0.000E+00  0.000E+00
 -21.361  0.000E+00  0.000E+00
 -21.360  0.000E+00  0.000E+00
 -21.359  0.000E+00  0.000E+00
 -21.358  0.000E+00  0.000E+00
 -21.357  0.000E+00  0.000E+00
 -21.356  0.000E+00  0.000E+00
 -21.355  0.000E+00  0.000E+00
 -21.354  0.000E+00  0.000E+00
 -21.353  0.000E+00  0.000E+00
 -21.352  0.000E+00  0.000E+00
 -21.351  0.000E+00  0.000E+00
 -21.350  0.000E+00  0.000E+00
 -21.349  0.000E+00  0.000E+00
 -21.348  0.000E+00  0.000E+00
 -21.347  0.000E+00  0.000E+00
 -21.346  0.000E+00  0.000E+00
 -21.345  0.000E+00  0.000E+00
 -21.344  0.000E+00  0.000E+00
 -21.343  0.000E+00  0.000E+00
 -21.342  0.000E+00  0.000E+00
 -21.341  0.000E+00  0.000E+00
 -21.340  0.000E+00  0.000E+00
 -21.339  0.000E+00  0.000E+00
 -21.338  0.000E+00  0.000E+00
 -21.337  0.000E+00  0.000E+00
 -21.336  0.000E+00  0.000E+00
 -21.335  0.000E+00  0.000E+00
 -21.334  0.000E+00  0.000E+00
 -21.333  0.000E+00  0.000E+00
 -21.332  0.000E+00  0.000E+00
 -21.331  0.000E+00  0.000E+00
 -21.330  0.000E+00  0.000E+00
 -21.329  0.000E+00  0.000E+00
 -21.328  0.000E+00  0.000E+00
 -21.327  0.000E+00  0.000E+00
 -21.326  0.000E+00  0.000E+00
 -21.325  0.000E+00  0.000E+00
 -21.324  0.000E+00  0.000E+00
 -21.323  0.000E+00  0.000E+00
 -21.322  0.000E+00  0.000E+00
 -21.321  0.000E+00  0.000E+00
 -21.320  0.000E+00  0.000E+00
 -21.319  0.000E+00  0.000E+00
 -21.318  0.000E+00  0.000E+00
 -21.317  0.000E+00  0.000E+00
 -21.316  0.000E+00  0.000E+00
 -21.315  0.000E+00  0.000E+00
 -21.314  0.000E+00  0.000E+00
 -21.313  0.000E+00  0.000E+00
 -21.312  0.000E+00  0.000E+00
 -21.311  0.000E+00  0.000E+00
 -21.310  0.000E+00  0.000E+00
 -21.309  0.000E+00  0.000E+00
 -21.308  0.000E+00  0.000E+00
 -21.307  0.000E+00  0.000E+00
 -21.306  0.000E+00  0.000E+00
 -21.305  0.000E+00  0.000E+00
 -21.304  0.000E+00  0.000E+00
 -21.303  0.000E+00  0.000E+00
 -21.302  0.000E+00  0.000E+00
 -21.301  0.000E+00  0.000E+00
 -21.300  0.000E+00  0.000E+00
 -21.299  0.000E+00  0.000E+00
 -21.298  0.000E+00  0.000E+00
 -21.297  0.000E+00  0.000E+00
 -21.296  0.000E+00  0.000E+00
 -21.295  0.000E+00  0.000E+00
 -21.294  0.000E+00  0.000E+00
 -21.293  0.000E+00  0.000E+00
 -21.292  0.000E+00  0.000E+00
 -21.291  0.000E+00  0.000E+00
 -21.290  0.000E+00  0.000E+00
 -21.289  0.000E+00  0.000E+00
 -21.288  0.000E+00  0.000E+00
 -21.287  0.000E+00  0.000E+00
 -21.286  0.000E+00  0.000E+00
 -21.285  0.000E+00  0.000E+00
 -21.284  0.000E+00  0.000E+00
 -21.283  0.000E+00  0.000E+00
 -21.282  0.000E+00  0.000E+00
 -21.281  0.000E+00  0.000E+00
 -21.280  0.000E+00  0.000E+00
 -21.279  0.000E+00  0.000E+00
 -21.278  0.000E+00  0.000E+00
 -21.277  0.000E+00  0.000E+00
 -21.276  0.000E+00  0.000E+00
 -21.275  0.000E+00  0.000E+00
 -21.274  0.000E+00  0.000E+00
 -21.273  0.000E+00  0.000E+00
 -21.272  0.000E+00  0.000E+00
 -21.271  0.000E+00  0.000E+00
 -21.270  0.000E+00  0.000E+00
 -21.269  0.000E+00  0.000E+00
 -21.268  0.000E+00  0.000E+00
 -21.267  0.000E+00  0.000E+00
 -21.266  0.000E+00  0.000E+00
 -21.265  0.000E+00  0.000E+00
 -21.264  0.000E+00  0.000E+00
 -21.263  0.000E+00  0.000E+00
 -21.262  0.000E+00  0.000E+00
 -21.261  0.000E+00  0.000E+00
 -21.260  0.000E+00  0.000E+00
 -21.259  0.000E+00  0.000E+00
 -21.258  0.000E+00  0.000E+00
 -21.257  0.000E+00  0.000E+00
 -21.256  0.000E+00  0.000E+00
 -21.255  0.000E+00  0.000E+00
 -21.254  0.000E+00  0.000E+00
 -21.253  0.000E+00  0.000E+00
 -21.252  0.000E+00  0.000E+00
 -21.251  0.000E+00  0.000E+00
 -21.250  0.000E+00  0.000E+00
 -21.249  0.000E+00  0.000E+00
 -21.248  0.000E+00  0.000E+00
 -21.247  0.000E+00  0.000E+00
 -21.246  0.000E+00  0.000E+00
 -21.245  0.000E+00  0.000E+00
 -21.244  0.368E+00  0.368E+00
 -21.243  0.242E+00  0.242E+00
 -21.242  0.125E+00  0.125E+00
 -21.241  0.856E-01  0.856E-01
 -21.240  0.387E-01  0.387E-01
 -21.239  0.264E-01  0.264E-01
 -21.238  0.189E-01  0.189E-01
 -21.237  0.115E-01  0.115E-01
 -21.236  0.673E-02  0.673E-02
 -21.235  0.530E-02  0.530E-02
 -21.234  0.404E-02  0.404E-02
 -21.233  0.295E-02  0.295E-02
 -21.232  0.202E-02  0.202E-02
 -21.231  0.761E-03  0.761E-03
 -21.230  0.594E-03  0.594E-03
 -21.229  0.448E-03  0.448E-03
 -21.228  0.322E-03  0.322E-03
 -21.227  0.217E-03  0.217E-03
 -21.226  0.133E-03  0.133E-03
 -21.225  0.692E-04  0.692E-04
 -21.224  0.261E-04  0.261E-04
 -21.223  0.359E-05  0.359E-05
 -21.222  0.000E+00  0.000E+00
 -21.221  0.150E-05  0.150E-05
 -21.220  0.115E-04  0.115E-04
 -21.219  0.307E-04  0.307E-04
 -21.218  0.593E-04  0.593E-04
 -21.217  0.972E-04  0.972E-04
 -21.216  0.144E-03  0.144E-03
 -21.215  0.201E-03  0.201E-03
 -21.214  0.267E-03  0.267E-03
 -21.213  0.342E-03  0.342E-03
 -21.212  0.426E-03  0.426E-03
 -21.211  0.520E-03  0.520E-03
 -21.210  0.623E-03  0.623E-03
 -21.209  0.843E-03  0.843E-03
 -21.208  0.104E-02  0.104E-02
 -21.207  0.124E-02  0.124E-02
 -21.206  0.146E-02  0.146E-02
 -21.205  0.169E-02  0.169E-02
 -21.204  0.194E-02  0.194E-02
 -21.203  0.220E-02  0.220E-02
 -21.202  0.247E-02  0.247E-02
 -21.201  0.276E-02  0.276E-02
 -21.200  0.306E-02  0.306E-02
 -21.199  0.337E-02  0.337E-02
 -21.198  0.374E-02  0.374E-02
 -21.197  0.417E-02  0.417E-02
 -21.196  0.465E-02  0.465E-02
 -21.195  0.520E-02  0.520E-02
 -21.194  0.578E-02  0.578E-02
 -21.193  0.636E-02  0.636E-02
 -21.192  0.695E-02  0.695E-02
 -21.191  0.756E-02  0.756E-02
 -21.190  0.819E-02  0.819E-02
 -21.189  0.884E-02  0.884E-02
 -21.188  0.951E-02  0.951E-02
 -21.187  0.102E-01  0.102E-01
 -21.186  0.109E-01  0.109E-01
 -21.185  0.116E-01  0.116E-01
 -21.184  0.123E-01  0.123E-01
 -21.183  0.174E-01  0.174E-01
 -21.182  0.196E-01  0.196E-01
 -21.181  0.219E-01  0.219E-01
 -21.180  0.243E-01  0.243E-01
 -21.179  0.268E-01  0.268E-01
 -21.178  0.294E-01  0.294E-01
 -21.177  0.320E-01  0.320E-01
 -21.176  0.342E-01  0.342E-01
 -21.175  0.349E-01  0.349E-01
 -21.174  0.298E-01  0.298E-01
 -21.173  0.245E-01  0.245E-01
 -21.172  0.190E-01  0.190E-01
 -21.171  0.171E-01  0.171E-01
 -21.170  0.163E-01  0.163E-01
 -21.169  0.155E-01  0.155E-01
 -21.168  0.147E-01  0.147E-01
 -21.167  0.140E-01  0.140E-01
 -21.166  0.133E-01  0.133E-01
 -21.165  0.125E-01  0.125E-01
 -21.164  0.115E-01  0.115E-01
 -21.163  0.103E-01  0.103E-01
 -21.162  0.916E-02  0.916E-02
 -21.161  0.879E-02  0.879E-02
 -21.160  0.843E-02  0.843E-02
 -21.159  0.809E-02  0.809E-02
 -21.158  0.776E-02  0.776E-02
 -21.157  0.745E-02  0.745E-02
 -21.156  0.714E-02  0.714E-02
 -21.155  0.686E-02  0.686E-02
 -21.154  0.658E-02  0.658E-02
 -21.153  0.658E-02  0.658E-02
 -21.152  0.766E-02  0.766E-02
 -21.151  0.934E-02  0.934E-02
 -21.150  0.115E-01  0.115E-01
 -21.149  0.139E-01  0.139E-01
 -21.148  0.166E-01  0.166E-01
 -21.147  0.197E-01  0.197E-01
 -21.146  0.229E-01  0.229E-01
 -21.145  0.264E-01  0.264E-01
 -21.144  0.301E-01  0.301E-01
 -21.143  0.318E-01  0.318E-01
 -21.142  0.341E-01  0.341E-01
 -21.141  0.364E-01  0.364E-01
 -21.140  0.393E-01  0.393E-01
 -21.139  0.430E-01  0.430E-01
 -21.138  0.470E-01  0.470E-01
 -21.137  0.511E-01  0.511E-01
 -21.136  0.554E-01  0.554E-01
 -21.135  0.610E-01  0.610E-01
 -21.134  0.687E-01  0.687E-01
 -21.133  0.755E-01  0.755E-01
 -21.132  0.826E-01  0.826E-01
 -21.131  0.909E-01  0.909E-01
 -21.130  0.100E+00  0.100E+00
 -21.129  0.135E+00  0.135E+00
 -21.128  0.119E+00  0.119E+00
 -21.127  0.117E+00  0.117E+00
 -21.126  0.114E+00  0.114E+00
 -21.125  0.115E+00  0.115E+00
 -21.124  0.105E+00  0.105E+00
 -21.123  0.966E-01  0.966E-01
 -21.122  0.893E-01  0.893E-01
 -21.121  0.825E-01  0.825E-01
 -21.120  0.749E-01  0.749E-01
 -21.119  0.823E-01  0.823E-01
 -21.118  0.954E-01  0.954E-01
 -21.117  0.109E+00  0.109E+00
 -21.116  0.109E+00  0.109E+00
 -21.115  0.782E-01  0.782E-01
 -21.114  0.449E-01  0.449E-01
 -21.113  0.920E-02  0.920E-02
 -21.112  0.000E+00  0.000E+00
 -21.111  0.000E+00  0.000E+00
 -21.110  0.000E+00  0.000E+00
 -21.109  0.000E+00  0.000E+00
 -21.108  0.000E+00  0.000E+00
 -21.107  0.000E+00  0.000E+00
 -21.106  0.000E+00  0.000E+00
 -21.105  0.000E+00  0.000E+00
 -21.104  0.000E+00  0.000E+00
 -21.103  0.000E+00  0.000E+00
 -21.102  0.000E+00  0.000E+00
 -21.101  0.000E+00  0.000E+00
 -21.100  0.000E+00  0.000E+00
 -21.099  0.000E+00  0.000E+00
 -21.098  0.000E+00  0.000E+00
 -21.097  0.000E+00  0.000E+00
 -21.096  0.000E+00  0.000E+00
 -21.095  0.000E+00  0.000E+00
 -21.094  0.000E+00  0.000E+00
 -21.093  0.000E+00  0.000E+00
 -21.092  0.000E+00  0.000E+00
 -21.091  0.000E+00  0.000E+00
 -21.090  0.000E+00  0.000E+00
 -21.089  0.000E+00  0.000E+00
 -21.088  0.000E+00  0.000E+00
 -21.087  0.000E+00  0.000E+00
 -21.086  0.000E+00  0.000E+00
 -21.085  0.000E+00  0.000E+00
 -21.084  0.000E+00  0.000E+00
 -21.083  0.000E+00  0.000E+00
 -21.082  0.000E+00  0.000E+00
 -21.081  0.000E+00  0.000E+00
 -21.080  0.000E+00  0.000E+00
 -21.079  0.000E+00  0.000E+00
 -21.078  0.000E+00  0.000E+00
 -21.077  0.000E+00  0.000E+00
 -21.076  0.000E+00  0.000E+00
 -21.075  0.970E-07  0.970E-07
 -21.074  0.263E-01  0.263E-01
 -21.073  0.104E-01  0.104E-01
 -21.072  0.105E-01  0.105E-01
 -21.071  0.110E-01  0.110E-01
 -21.070  0.119E-01  0.119E-01
 -21.069  0.131E-01  0.131E-01
 -21.068  0.140E-01  0.140E-01
 -21.067  0.147E-01  0.147E-01
 -21.066  0.155E-01  0.155E-01
 -21.065  0.162E-01  0.162E-01
 -21.064  0.168E-01  0.168E-01
 -21.063  0.173E-01  0.173E-01
 -21.062  0.179E-01  0.179E-01
 -21.061  0.187E-01  0.187E-01
 -21.060  0.195E-01  0.195E-01
 -21.059  0.206E-01  0.206E-01
 -21.058  0.219E-01  0.219E-01
 -21.057  0.228E-01  0.228E-01
 -21.056  0.238E-01  0.238E-01
 -21.055  0.249E-01  0.249E-01
 -21.054  0.260E-01  0.260E-01
 -21.053  0.271E-01  0.271E-01
 -21.052  0.285E-01  0.285E-01
 -21.051  0.301E-01  0.301E-01
 -21.050  0.317E-01  0.317E-01
 -21.049  0.334E-01  0.334E-01
 -21.048  0.352E-01  0.352E-01
 -21.047  0.374E-01  0.374E-01
 -21.046  0.401E-01  0.401E-01
 -21.045  0.428E-01  0.428E-01
 -21.044  0.456E-01  0.456E-01
 -21.043  0.484E-01  0.484E-01
 -21.042  0.521E-01  0.521E-01
 -21.041  0.561E-01  0.561E-01
 -21.040  0.603E-01  0.603E-01
 -21.039  0.648E-01  0.648E-01
 -21.038  0.708E-01  0.708E-01
 -21.037  0.823E-01  0.823E-01
 -21.036  0.942E-01  0.942E-01
 -21.035  0.107E+00  0.107E+00
 -21.034  0.281E+00  0.281E+00
 -21.033  0.833E-01  0.833E-01
 -21.032  0.465E-01  0.465E-01
 -21.031  0.538E-02  0.538E-02
 -21.030  0.231E-02  0.231E-02
 -21.029  0.208E-02  0.208E-02
 -21.028  0.188E-02  0.188E-02
 -21.027  0.170E-02  0.170E-02
 -21.026  0.154E-02  0.154E-02
 -21.025  0.141E-02  0.141E-02
 -21.024  0.131E-02  0.131E-02
 -21.023  0.122E-02  0.122E-02
 -21.022  0.116E-02  0.116E-02
 -21.021  0.113E-02  0.113E-02
 -21.020  0.111E-02  0.111E-02
 -21.019  0.113E-02  0.113E-02
 -21.018  0.116E-02  0.116E-02
 -21.017  0.121E-02  0.121E-02
 -21.016  0.127E-02  0.127E-02
 -21.015  0.132E-02  0.132E-02
 -21.014  0.137E-02  0.137E-02
 -21.013  0.143E-02  0.143E-02
 -21.012  0.144E-02  0.144E-02
 -21.011  0.154E-02  0.154E-02
 -21.010  0.167E-02  0.167E-02
 -21.009  0.180E-02  0.180E-02
 -21.008  0.195E-02  0.195E-02
 -21.007  0.212E-02  0.212E-02
 -21.006  0.229E-02  0.229E-02
 -21.005  0.249E-02  0.249E-02
 -21.004  0.269E-02  0.269E-02
 -21.003  0.290E-02  0.290E-02
 -21.002  0.312E-02  0.312E-02
 -21.001  0.334E-02  0.334E-02
 -21.000  0.357E-02  0.357E-02
 -20.999  0.380E-02  0.380E-02
 -20.998  0.404E-02  0.404E-02
 -20.997  0.429E-02  0.429E-02
 -20.996  0.454E-02  0.454E-02
 -20.995  0.480E-02  0.480E-02
 -20.994  0.506E-02  0.506E-02
 -20.993  0.533E-02  0.533E-02
 -20.992  0.560E-02  0.560E-02
 -20.991  0.630E-02  0.630E-02
 -20.990  0.659E-02  0.659E-02
 -20.989  0.692E-02  0.692E-02
 -20.988  0.747E-02  0.747E-02
 -20.987  0.807E-02  0.807E-02
 -20.986  0.869E-02  0.869E-02
 -20.985  0.929E-02  0.929E-02
 -20.984  0.991E-02  0.991E-02
 -20.983  0.105E-01  0.105E-01
 -20.982  0.112E-01  0.112E-01
 -20.981  0.119E-01  0.119E-01
 -20.980  0.126E-01  0.126E-01
 -20.979  0.133E-01  0.133E-01
 -20.978  0.141E-01  0.141E-01
 -20.977  0.149E-01  0.149E-01
 -20.976  0.156E-01  0.156E-01
 -20.975  0.165E-01  0.165E-01
 -20.974  0.173E-01  0.173E-01
 -20.973  0.181E-01  0.181E-01
 -20.972  0.189E-01  0.189E-01
 -20.971  0.197E-01  0.197E-01
 -20.970  0.268E-01  0.268E-01
 -20.969  0.396E-01  0.396E-01
 -20.968  0.521E-01  0.521E-01
 -20.967  0.642E-01  0.642E-01
 -20.966  0.760E-01  0.760E-01
 -20.965  0.336E-01  0.336E-01
 -20.964  0.288E-01  0.288E-01
 -20.963  0.245E-01  0.245E-01
 -20.962  0.206E-01  0.206E-01
 -20.961  0.172E-01  0.172E-01
 -20.960  0.141E-01  0.141E-01
 -20.959  0.114E-01  0.114E-01
 -20.958  0.997E-02  0.997E-02
 -20.957  0.888E-02  0.888E-02
 -20.956  0.787E-02  0.787E-02
 -20.955  0.695E-02  0.695E-02
 -20.954  0.612E-02  0.612E-02
 -20.953  0.538E-02  0.538E-02
 -20.952  0.575E-02  0.575E-02
 -20.951  0.502E-02  0.502E-02
 -20.950  0.434E-02  0.434E-02
 -20.949  0.370E-02  0.370E-02
 -20.948  0.309E-02  0.309E-02
 -20.947  0.253E-02  0.253E-02
 -20.946  0.201E-02  0.201E-02
 -20.945  0.153E-02  0.153E-02
 -20.944  0.110E-02  0.110E-02
 -20.943  0.701E-03  0.701E-03
 -20.942  0.538E-03  0.538E-03
 -20.941  0.584E-03  0.584E-03
 -20.940  0.633E-03  0.633E-03
 -20.939  0.685E-03  0.685E-03
 -20.938  0.741E-03  0.741E-03
 -20.937  0.801E-03  0.801E-03
 -20.936  0.871E-03  0.871E-03
 -20.935  0.961E-03  0.961E-03
 -20.934  0.107E-02  0.107E-02
 -20.933  0.119E-02  0.119E-02
 -20.932  0.132E-02  0.132E-02
 -20.931  0.274E-02  0.274E-02
 -20.930  0.480E-02  0.480E-02
 -20.929  0.683E-02  0.683E-02
 -20.928  0.884E-02  0.884E-02
 -20.927  0.108E-01  0.108E-01
 -20.926  0.128E-01  0.128E-01
 -20.925  0.147E-01  0.147E-01
 -20.924  0.166E-01  0.166E-01
 -20.923  0.213E-01  0.213E-01
 -20.922  0.286E-01  0.286E-01
 -20.921  0.347E-01  0.347E-01
 -20.920  0.395E-01  0.395E-01
 -20.919  0.606E-01  0.606E-01
 -20.918  0.532E-01  0.532E-01
 -20.917  0.493E-01  0.493E-01
 -20.916  0.409E-01  0.409E-01
 -20.915  0.317E-01  0.317E-01
 -20.914  0.309E-01  0.309E-01
 -20.913  0.300E-01  0.300E-01
 -20.912  0.288E-01  0.288E-01
 -20.911  0.255E-01  0.255E-01
 -20.910  0.148E-01  0.148E-01
 -20.909  0.908E-02  0.908E-02
 -20.908  0.957E-02  0.957E-02
 -20.907  0.100E-01  0.100E-01
 -20.906  0.104E-01  0.104E-01
 -20.905  0.108E-01  0.108E-01
 -20.904  0.111E-01  0.111E-01
 -20.903  0.113E-01  0.113E-01
 -20.902  0.116E-01  0.116E-01
 -20.901  0.117E-01  0.117E-01
 -20.900  0.119E-01  0.119E-01
 -20.899  0.120E-01  0.120E-01
 -20.898  0.127E-01  0.127E-01
 -20.897  0.141E-01  0.141E-01
 -20.896  0.157E-01  0.157E-01
 -20.895  0.174E-01  0.174E-01
 -20.894  0.442E-01  0.442E-01
 -20.893  0.518E-01  0.518E-01
 -20.892  0.523E-01  0.523E-01
 -20.891  0.536E-01  0.536E-01
 -20.890  0.544E-01  0.544E-01
 -20.889  0.547E-01  0.547E-01
 -20.888  0.546E-01  0.546E-01
 -20.887  0.541E-01  0.541E-01
 -20.886  0.529E-01  0.529E-01
 -20.885  0.514E-01  0.514E-01
 -20.884  0.495E-01  0.495E-01
 -20.883  0.472E-01  0.472E-01
 -20.882  0.446E-01  0.446E-01
 -20.881  0.417E-01  0.417E-01
 -20.880  0.385E-01  0.385E-01
 -20.879  0.374E-01  0.374E-01
 -20.878  0.361E-01  0.361E-01
 -20.877  0.347E-01  0.347E-01
 -20.876  0.330E-01  0.330E-01
 -20.875  0.323E-01  0.323E-01
 -20.874  0.323E-01  0.323E-01
 -20.873  0.322E-01  0.322E-01
 -20.872  0.321E-01  0.321E-01
 -20.871  0.321E-01  0.321E-01
 -20.870  0.320E-01  0.320E-01
 -20.869  0.320E-01  0.320E-01
 -20.868  0.319E-01  0.319E-01
 -20.867  0.319E-01  0.319E-01
 -20.866  0.324E-01  0.324E-01
 -20.865  0.325E-01  0.325E-01
 -20.864  0.325E-01  0.325E-01
 -20.863  0.326E-01  0.326E-01
 -20.862  0.327E-01  0.327E-01
 -20.861  0.330E-01  0.330E-01
 -20.860  0.333E-01  0.333E-01
 -20.859  0.335E-01  0.335E-01
 -20.858  0.337E-01  0.337E-01
 -20.857  0.339E-01  0.339E-01
 -20.856  0.341E-01  0.341E-01
 -20.855  0.343E-01  0.343E-01
 -20.854  0.345E-01  0.345E-01
 -20.853  0.346E-01  0.346E-01
 -20.852  0.347E-01  0.347E-01
 -20.851  0.348E-01  0.348E-01
 -20.850  0.349E-01  0.349E-01
 -20.849  0.350E-01  0.350E-01
 -20.848  0.350E-01  0.350E-01
 -20.847  0.351E-01  0.351E-01
 -20.846  0.356E-01  0.356E-01
 -20.845  0.362E-01  0.362E-01
 -20.844  0.368E-01  0.368E-01
 -20.843  0.374E-01  0.374E-01
 -20.842  0.380E-01  0.380E-01
 -20.841  0.386E-01  0.386E-01
 -20.840  0.393E-01  0.393E-01
 -20.839  0.396E-01  0.396E-01
 -20.838  0.404E-01  0.404E-01
 -20.837  0.427E-01  0.427E-01
 -20.836  0.439E-01  0.439E-01
 -20.835  0.438E-01  0.438E-01
 -20.834  0.430E-01  0.430E-01
 -20.833  0.424E-01  0.424E-01
 -20.832  0.423E-01  0.423E-01
 -20.831  0.426E-01  0.426E-01
 -20.830  0.393E-01  0.393E-01
 -20.829  0.386E-01  0.386E-01
 -20.828  0.379E-01  0.379E-01
 -20.827  0.373E-01  0.373E-01
 -20.826  0.367E-01  0.367E-01
 -20.825  0.361E-01  0.361E-01
 -20.824  0.576E-01  0.576E-01
 -20.823  0.520E-01  0.520E-01
 -20.822  0.463E-01  0.463E-01
 -20.821  0.405E-01  0.405E-01
 -20.820  0.346E-01  0.346E-01
 -20.819  0.286E-01  0.286E-01
 -20.818  0.225E-01  0.225E-01
 -20.817  0.164E-01  0.164E-01
 -20.816  0.102E-01  0.102E-01
 -20.815  0.901E-02  0.901E-02
 -20.814  0.973E-02  0.973E-02
 -20.813  0.105E-01  0.105E-01
 -20.812  0.126E-01  0.126E-01
 -20.811  0.135E-01  0.135E-01
 -20.810  0.144E-01  0.144E-01
 -20.809  0.154E-01  0.154E-01
 -20.808  0.163E-01  0.163E-01
 -20.807  0.170E-01  0.170E-01
 -20.806  0.176E-01  0.176E-01
 -20.805  0.180E-01  0.180E-01
 -20.804  0.184E-01  0.184E-01
 -20.803  0.186E-01  0.186E-01
 -20.802  0.188E-01  0.188E-01
 -20.801  0.188E-01  0.188E-01
 -20.800  0.187E-01  0.187E-01
 -20.799  0.114E-01  0.114E-01
 -20.798  0.113E-01  0.113E-01
 -20.797  0.111E-01  0.111E-01
 -20.796  0.109E-01  0.109E-01
 -20.795  0.107E-01  0.107E-01
 -20.794  0.104E-01  0.104E-01
 -20.793  0.100E-01  0.100E-01
 -20.792  0.979E-02  0.979E-02
 -20.791  0.911E-02  0.911E-02
 -20.790  0.911E-02  0.911E-02
 -20.789  0.900E-02  0.900E-02
 -20.788  0.878E-02  0.878E-02
 -20.787  0.844E-02  0.844E-02
 -20.786  0.800E-02  0.800E-02
 -20.785  0.745E-02  0.745E-02
 -20.784  0.679E-02  0.679E-02
 -20.783  0.602E-02  0.602E-02
 -20.782  0.585E-02  0.585E-02
 -20.781  0.580E-02  0.580E-02
 -20.780  0.577E-02  0.577E-02
 -20.779  0.573E-02  0.573E-02
 -20.778  0.570E-02  0.570E-02
 -20.777  0.165E-01  0.165E-01
 -20.776  0.111E-01  0.111E-01
 -20.775  0.896E-02  0.896E-02
 -20.774  0.855E-02  0.855E-02