# E (eV)   ldos(E)   pdos(E)   
 -21.943  0.156E-03  0.156E-03
 -21.942  0.171E-03  0.171E-03
 -21.941  0.186E-03  0.186E-03
 -21.940  0.203E-03  0.203E-03
 -21.939  0.222E-03  0.222E-03
 -21.938  0.242E-03  0.242E-03
 -21.937  0.264E-03  0.264E-03
 -21.936  0.287E-03  0.287E-03
 -21.935  0.313E-03  0.313E-03
 -21.934  0.340E-03  0.340E-03
 -21.933  0.370E-03  0.370E-03
 -21.932  0.402E-03  0.402E-03
 -21.931  0.437E-03  0.437E-03
 -21.930  0.475E-03  0.475E-03
 -21.929  0.516E-03  0.516E-03
 -21.928  0.560E-03  0.560E-03
 -21.927  0.608E-03  0.608E-03
 -21.926  0.659E-03  0.659E-03
 -21.925  0.715E-03  0.715E-03
 -21.924  0.774E-03  0.774E-03
 -21.923  0.839E-03  0.839E-03
 -21.922  0.908E-03  0.908E-03
 -21.921  0.983E-03  0.983E-03
 -21.920  0.106E-02  0.106E-02
 -21.919  0.115E-02  0.115E-02
 -21.918  0.124E-02  0.124E-02
 -21.917  0.134E-02  0.134E-02
 -21.916  0.145E-02  0.145E-02
 -21.915  0.156E-02  0.156E-02
 -21.914  0.169E-02  0.169E-02
 -21.913  0.182E-02  0.182E-02
 -21.912  0.196E-02  0.196E-02
 -21.911  0.211E-02  0.211E-02
 -21.910  0.228E-02  0.228E-02
 -21.909  0.245E-02  0.245E-02
 -21.908  0.264E-02  0.264E-02
 -21.907  0.284E-02  0.284E-02
 -21.906  0.305E-02  0.305E-02
 -21.905  0.328E-02  0.328E-02
 -21.904  0.352E-02  0.352E-02
 -21.903  0.378E-02  0.378E-02
 -21.902  0.406E-02  0.406E-02
 -21.901  0.436E-02  0.436E-02
 -21.900  0.467E-02  0.467E-02
 -21.899  0.501E-02  0.501E-02
 -21.898  0.537E-02  0.537E-02
 -21.897  0.575E-02  0.575E-02
 -21.896  0.615E-02  0.615E-02
 -21.895  0.658E-02  0.658E-02
 -21.894  0.704E-02  0.704E-02
 -21.893  0.753E-02  0.753E-02
 -21.892  0.805E-02  0.805E-02
 -21.891  0.860E-02  0.860E-02
 -21.890  0.918E-02  0.918E-02
 -21.889  0.980E-02  0.980E-02
 -21.888  0.105E-01  0.105E-01
 -21.887  0.111E-01  0.111E-01
 -21.886  0.119E-01  0.119E-01
 -21.885  0.127E-01  0.127E-01
 -21.884  0.135E-01  0.135E-01
 -21.883  0.144E-01  0.144E-01
 -21.882  0.153E-01  0.153E-01
 -21.881  0.162E-01  0.162E-01
 -21.880  0.173E-01  0.173E-01
 -21.879  0.184E-01  0.184E-01
 -21.878  0.195E-01  0.195E-01
 -21.877  0.207E-01  0.207E-01
 -21.876  0.220E-01  0.220E-01
 -21.875  0.233E-01  0.233E-01
 -21.874  0.247E-01  0.247E-01
 -21.873  0.262E-01  0.262E-01
 -21.872  0.278E-01  0.278E-01
 -21.871  0.294E-01  0.294E-01
 -21.870  0.311E-01  0.311E-01
 -21.869  0.329E-01  0.329E-01
 -21.868  0.348E-01  0.348E-01
 -21.867  0.368E-01  0.368E-01
 -21.866  0.389E-01  0.389E-01
 -21.865  0.411E-01  0.411E-01
 -21.864  0.434E-01  0.434E-01
 -21.863  0.458E-01  0.458E-01
 -21.862  0.483E-01  0.483E-01
 -21.861  0.510E-01  0.510E-01
 -21.860  0.537E-01  0.537E-01
 -21.859  0.566E-01  0.566E-01
 -21.858  0.596E-01  0.596E-01
 -21.857  0.628E-01  0.628E-01
 -21.856  0.660E-01  0.660E-01
 -21.855  0.694E-01  0.694E-01
 -21.854  0.730E-01  0.730E-01
 -21.853  0.767E-01  0.767E-01
 -21.852  0.806E-01  0.806E-01
 -21.851  0.846E-01  0.846E-01
 -21.850  0.888E-01  0.888E-01
 -21.849  0.932E-01  0.932E-01
 -21.848  0.977E-01  0.977E-01
 -21.847  0.102E+00  0.102E+00
 -21.846  0.107E+00  0.107E+00
 -21.845  0.112E+00  0.112E+00
 -21.844  0.118E+00  0.118E+00
 -21.843  0.123E+00  0.123E+00
 -21.842  0.129E+00  0.129E+00
 -21.841  0.135E+00  0.135E+00
 -21.840  0.141E+00  0.141E+00
 -21.839  0.147E+00  0.147E+00
 -21.838  0.153E+00  0.153E+00
 -21.837  0.160E+00  0.160E+00
 -21.836  0.167E+00  0.167E+00
 -21.835  0.174E+00  0.174E+00
 -21.834  0.181E+00  0.181E+00
 -21.833  0.189E+00  0.189E+00
 -21.832  0.197E+00  0.197E+00
 -21.831  0.205E+00  0.205E+00
 -21.830  0.213E+00  0.213E+00
 -21.829  0.222E+00  0.222E+00
 -21.828  0.230E+00  0.230E+00
 -21.827  0.239E+00  0.239E+00
 -21.826  0.249E+00  0.249E+00
 -21.825  0.258E+00  0.258E+00
 -21.824  0.268E+00  0.268E+00
 -21.823  0.278E+00  0.278E+00
 -21.822  0.288E+00  0.288E+00
 -21.821  0.299E+00  0.299E+00
 -21.820  0.309E+00  0.309E+00
 -21.819  0.320E+00  0.320E+00
 -21.818  0.332E+00  0.332E+00
 -21.817  0.343E+00  0.343E+00
 -21.816  0.355E+00  0.355E+00
 -21.815  0.367E+00  0.367E+00
 -21.814  0.379E+00  0.379E+00
 -21.813  0.392E+00  0.392E+00
 -21.812  0.404E+00  0.404E+00
 -21.811  0.417E+00  0.417E+00
 -21.810  0.430E+00  0.430E+00
 -21.809  0.444E+00  0.444E+00
 -21.808  0.457E+00  0.457E+00
 -21.807  0.471E+00  0.471E+00
 -21.806  0.485E+00  0.485E+00
 -21.805  0.499E+00  0.499E+00
 -21.804  0.514E+00  0.514E+00
 -21.803  0.528E+00  0.528E+00
 -21.802  0.543E+00  0.543E+00
 -21.801  0.558E+00  0.558E+00
 -21.800  0.573E+00  0.573E+00
 -21.799  0.588E+00  0.588E+00
 -21.798  0.604E+00  0.604E+00
 -21.797  0.619E+00  0.619E+00
 -21.796  0.635E+00  0.635E+00
 -21.795  0.651E+00  0.651E+00
 -21.794  0.667E+00  0.667E+00
 -21.793  0.682E+00  0.682E+00
 -21.792  0.699E+00  0.699E+00
 -21.791  0.715E+00  0.715E+00
 -21.790  0.731E+00  0.731E+00
 -21.789  0.747E+00  0.747E+00
 -21.788  0.763E+00  0.763E+00
 -21.787  0.780E+00  0.780E+00
 -21.786  0.796E+00  0.796E+00
 -21.785  0.812E+00  0.812E+00
 -21.784  0.828E+00  0.828E+00
 -21.783  0.844E+00  0.844E+00
 -21.782  0.861E+00  0.861E+00
 -21.781  0.877E+00  0.877E+00
 -21.780  0.893E+00  0.893E+00
 -21.779  0.909E+00  0.909E+00
 -21.778  0.924E+00  0.924E+00
 -21.777  0.940E+00  0.940E+00
 -21.776  0.955E+00  0.955E+00
 -21.775  0.971E+00  0.971E+00
 -21.774  0.986E+00  0.986E+00
 -21.773  0.100E+01  0.100E+01
 -21.772  0.102E+01  0.102E+01
 -21.771  0.103E+01  0.103E+01
 -21.770  0.104E+01  0.104E+01
 -21.769  0.106E+01  0.106E+01
 -21.768  0.107E+01  0.107E+01
 -21.767  0.109E+01  0.109E+01
 -21.766  0.110E+01  0.110E+01
 -21.765  0.111E+01  0.111E+01
 -21.764  0.112E+01  0.112E+01
 -21.763  0.114E+01  0.114E+01
 -21.762  0.115E+01  0.115E+01
 -21.761  0.116E+01  0.116E+01
 -21.760  0.117E+01  0.117E+01
 -21.759  0.118E+01  0.118E+01
 -21.758  0.119E+01  0.119E+01
 -21.757  0.120E+01  0.120E+01
 -21.756  0.121E+01  0.121E+01
 -21.755  0.122E+01  0.122E+01
 -21.754  0.123E+01  0.123E+01
 -21.753  0.123E+01  0.123E+01
 -21.752  0.124E+01  0.124E+01
 -21.751  0.125E+01  0.125E+01
 -21.750  0.126E+01  0.126E+01
 -21.749  0.126E+01  0.126E+01
 -21.748  0.127E+01  0.127E+01
 -21.747  0.127E+01  0.127E+01
 -21.746  0.128E+01  0.128E+01
 -21.745  0.128E+01  0.128E+01
 -21.744  0.128E+01  0.128E+01
 -21.743  0.129E+01  0.129E+01
 -21.742  0.129E+01  0.129E+01
 -21.741  0.129E+01  0.129E+01
 -21.740  0.129E+01  0.129E+01
 -21.739  0.129E+01  0.129E+01
 -21.738  0.129E+01  0.129E+01
 -21.737  0.129E+01  0.129E+01
 -21.736  0.129E+01  0.129E+01
 -21.735  0.129E+01  0.129E+01
 -21.734  0.128E+01  0.128E+01
 -21.733  0.128E+01  0.128E+01
 -21.732  0.128E+01  0.128E+01
 -21.731  0.127E+01  0.127E+01
 -21.730  0.127E+01  0.127E+01
 -21.729  0.126E+01  0.126E+01
 -21.728  0.126E+01  0.126E+01
 -21.727  0.125E+01  0.125E+01
 -21.726  0.125E+01  0.125E+01
 -21.725  0.124E+01  0.124E+01
 -21.724  0.123E+01  0.123E+01
 -21.723  0.122E+01  0.122E+01
 -21.722  0.121E+01  0.121E+01
 -21.721  0.121E+01  0.121E+01
 -21.720  0.120E+01  0.120E+01
 -21.719  0.119E+01  0.119E+01
 -21.718  0.118E+01  0.118E+01
 -21.717  0.117E+01  0.117E+01
 -21.716  0.115E+01  0.115E+01
 -21.715  0.114E+01  0.114E+01
 -21.714  0.113E+01  0.113E+01
 -21.713  0.112E+01  0.112E+01
 -21.712  0.111E+01  0.111E+01
 -21.711  0.109E+01  0.109E+01
 -21.710  0.108E+01  0.108E+01
 -21.709  0.107E+01  0.107E+01
 -21.708  0.105E+01  0.105E+01
 -21.707  0.104E+01  0.104E+01
 -21.706  0.102E+01  0.102E+01
 -21.705  0.101E+01  0.101E+01
 -21.704  0.994E+00  0.994E+00
 -21.703  0.979E+00  0.979E+00
 -21.702  0.964E+00  0.964E+00
 -21.701  0.949E+00  0.949E+00
 -21.700  0.933E+00  0.933E+00
 -21.699  0.918E+00  0.918E+00
 -21.698  0.902E+00  0.902E+00
 -21.697  0.886E+00  0.886E+00
 -21.696  0.870E+00  0.870E+00
 -21.695  0.854E+00  0.854E+00
 -21.694  0.838E+00  0.838E+00
 -21.693  0.821E+00  0.821E+00
 -21.692  0.805E+00  0.805E+00
 -21.691  0.789E+00  0.789E+00
 -21.690  0.773E+00  0.773E+00
 -21.689  0.756E+00  0.756E+00
 -21.688  0.740E+00  0.740E+00
 -21.687  0.724E+00  0.724E+00
 -21.686  0.708E+00  0.708E+00
 -21.685  0.692E+00  0.692E+00
 -21.684  0.676E+00  0.676E+00
 -21.683  0.660E+00  0.660E+00
 -21.682  0.644E+00  0.644E+00
 -21.681  0.628E+00  0.628E+00
 -21.680  0.613E+00  0.613E+00
 -21.679  0.597E+00  0.597E+00
 -21.678  0.582E+00  0.582E+00
 -21.677  0.567E+00  0.567E+00
 -21.676  0.551E+00  0.551E+00
 -21.675  0.537E+00  0.537E+00
 -21.674  0.522E+00  0.522E+00
 -21.673  0.507E+00  0.507E+00
 -21.672  0.493E+00  0.493E+00
 -21.671  0.479E+00  0.479E+00
 -21.670  0.465E+00  0.465E+00
 -21.669  0.451E+00  0.451E+00
 -21.668  0.438E+00  0.438E+00
 -21.667  0.425E+00  0.425E+00
 -21.666  0.412E+00  0.412E+00
 -21.665  0.399E+00  0.399E+00
 -21.664  0.386E+00  0.386E+00
 -21.663  0.374E+00  0.374E+00
 -21.662  0.362E+00  0.362E+00
 -21.661  0.350E+00  0.350E+00
 -21.660  0.338E+00  0.338E+00
 -21.659  0.327E+00  0.327E+00
 -21.658  0.316E+00  0.316E+00
 -21.657  0.305E+00  0.305E+00
 -21.656  0.294E+00  0.294E+00
 -21.655  0.284E+00  0.284E+00
 -21.654  0.274E+00  0.274E+00
 -21.653  0.264E+00  0.264E+00
 -21.652  0.254E+00  0.254E+00
 -21.651  0.245E+00  0.245E+00
 -21.650  0.236E+00  0.236E+00
 -21.649  0.227E+00  0.227E+00
 -21.648  0.218E+00  0.218E+00
 -21.647  0.210E+00  0.210E+00
 -21.646  0.201E+00  0.201E+00
 -21.645  0.193E+00  0.193E+00
 -21.644  0.186E+00  0.186E+00
 -21.643  0.178E+00  0.178E+00
 -21.642  0.171E+00  0.171E+00
 -21.641  0.164E+00  0.164E+00
 -21.640  0.157E+00  0.157E+00
 -21.639  0.151E+00  0.151E+00
 -21.638  0.144E+00  0.144E+00
 -21.637  0.138E+00  0.138E+00
 -21.636  0.132E+00  0.132E+00
 -21.635  0.126E+00  0.126E+00
 -21.634  0.121E+00  0.121E+00
 -21.633  0.115E+00  0.115E+00
 -21.632  0.110E+00  0.110E+00
 -21.631  0.105E+00  0.105E+00
 -21.630  0.100E+00  0.100E+00
 -21.629  0.957E-01  0.957E-01
 -21.628  0.913E-01  0.913E-01
 -21.627  0.870E-01  0.870E-01
 -21.626  0.829E-01  0.829E-01
 -21.625  0.789E-01  0.789E-01
 -21.624  0.751E-01  0.751E-01
 -21.623  0.715E-01  0.715E-01
 -21.622  0.680E-01  0.680E-01
 -21.621  0.646E-01  0.646E-01
 -21.620  0.614E-01  0.614E-01
 -21.619  0.583E-01  0.583E-01
 -21.618  0.554E-01  0.554E-01
 -21.617  0.525E-01  0.525E-01
 -21.616  0.498E-01  0.498E-01
 -21.615  0.472E-01  0.472E-01
 -21.614  0.448E-01  0.448E-01
 -21.613  0.424E-01  0.424E-01
 -21.612  0.402E-01  0.402E-01
 -21.611  0.380E-01  0.380E-01
 -21.610  0.360E-01  0.360E-01
 -21.609  0.340E-01  0.340E-01
 -21.608  0.322E-01  0.322E-01
 -21.607  0.304E-01  0.304E-01
 -21.606  0.287E-01  0.287E-01
 -21.605  0.271E-01  0.271E-01
 -21.604  0.256E-01  0.256E-01
 -21.603  0.241E-01  0.241E-01
 -21.602  0.227E-01  0.227E-01
 -21.601  0.214E-01  0.214E-01
 -21.600  0.202E-01  0.202E-01
 -21.599  0.190E-01  0.190E-01
 -21.598  0.179E-01  0.179E-01
 -21.597  0.168E-01  0.168E-01
 -21.596  0.158E-01  0.158E-01
 -21.595  0.149E-01  0.149E-01
 -21.594  0.140E-01  0.140E-01
 -21.593  0.131E-01  0.131E-01
 -21.592  0.123E-01  0.123E-01
 -21.591  0.116E-01  0.116E-01
 -21.590  0.108E-01  0.108E-01
 -21.589  0.102E-01  0.102E-01
 -21.588  0.953E-02  0.953E-02
 -21.587  0.893E-02  0.893E-02
 -21.586  0.836E-02  0.836E-02
 -21.585  0.782E-02  0.782E-02
 -21.584  0.732E-02  0.732E-02
 -21.583  0.684E-02  0.684E-02
 -21.582  0.640E-02  0.640E-02
 -21.581  0.598E-02  0.598E-02
 -21.580  0.558E-02  0.558E-02
 -21.579  0.521E-02  0.521E-02
 -21.578  0.486E-02  0.486E-02
 -21.577  0.453E-02  0.453E-02
 -21.576  0.423E-02  0.423E-02
 -21.575  0.394E-02  0.394E-02
 -21.574  0.367E-02  0.367E-02
 -21.573  0.342E-02  0.342E-02
 -21.572  0.318E-02  0.318E-02
 -21.571  0.296E-02  0.296E-02
 -21.570  0.275E-02  0.275E-02
 -21.569  0.256E-02  0.256E-02
 -21.568  0.238E-02  0.238E-02
 -21.567  0.221E-02  0.221E-02
 -21.566  0.205E-02  0.205E-02
 -21.565  0.190E-02  0.190E-02
 -21.564  0.176E-02  0.176E-02
 -21.563  0.163E-02  0.163E-02
 -21.562  0.151E-02  0.151E-02
 -21.561  0.140E-02  0.140E-02
 -21.560  0.130E-02  0.130E-02
 -21.559  0.120E-02  0.120E-02
 -21.558  0.111E-02  0.111E-02
 -21.557  0.103E-02  0.103E-02
 -21.556  0.950E-03  0.950E-03
 -21.555  0.878E-03  0.878E-03
 -21.554  0.811E-03  0.811E-03
 -21.553  0.748E-03  0.748E-03
 -21.552  0.690E-03  0.690E-03
 -21.551  0.637E-03  0.637E-03
 -21.550  0.587E-03  0.587E-03
 -21.549  0.541E-03  0.541E-03
 -21.548  0.498E-03  0.498E-03
 -21.547  0.459E-03  0.459E-03
 -21.546  0.422E-03  0.422E-03
 -21.545  0.388E-03  0.388E-03
 -21.544  0.357E-03  0.357E-03
 -21.543  0.328E-03  0.328E-03
 -21.542  0.301E-03  0.301E-03
 -21.541  0.277E-03  0.277E-03
 -21.540  0.254E-03  0.254E-03
 -21.539  0.233E-03  0.233E-03
 -21.538  0.214E-03  0.214E-03
 -21.537  0.196E-03  0.196E-03
 -21.536  0.180E-03  0.180E-03
 -21.535  0.165E-03  0.165E-03
 -21.534  0.151E-03  0.151E-03
 -21.533  0.138E-03  0.138E-03
 -21.532  0.126E-03  0.126E-03
 -21.531  0.115E-03  0.115E-03
 -21.530  0.105E-03  0.105E-03
 -21.529  0.963E-04  0.963E-04
 -21.528  0.879E-04  0.879E-04
 -21.527  0.802E-04  0.802E-04
 -21.526  0.732E-04  0.732E-04
 -21.525  0.668E-04  0.668E-04
 -21.524  0.609E-04  0.609E-04
 -21.523  0.554E-04  0.554E-04
 -21.522  0.505E-04  0.505E-04
 -21.521  0.460E-04  0.460E-04
 -21.520  0.418E-04  0.418E-04
 -21.519  0.381E-04  0.381E-04
 -21.518  0.346E-04  0.346E-04
 -21.517  0.314E-04  0.314E-04
 -21.516  0.286E-04  0.286E-04
 -21.515  0.259E-04  0.259E-04
 -21.514  0.235E-04  0.235E-04
 -21.513  0.214E-04  0.214E-04
 -21.512  0.194E-04  0.194E-04
 -21.511  0.176E-04  0.176E-04
 -21.510  0.159E-04  0.159E-04
 -21.509  0.144E-04  0.144E-04
 -21.508  0.131E-04  0.131E-04
 -21.507  0.118E-04  0.118E-04
 -21.506  0.107E-04  0.107E-04
 -21.505  0.966E-05  0.966E-05
 -21.504  0.873E-05  0.873E-05
 -21.503  0.789E-05  0.789E-05
 -21.502  0.713E-05  0.713E-05
 -21.501  0.644E-05  0.644E-05
 -21.500  0.581E-05  0.581E-05
 -21.499  0.524E-05  0.524E-05
 -21.498  0.473E-05  0.473E-05
 -21.497  0.427E-05  0.427E-05
 -21.496  0.385E-05  0.385E-05
 -21.495  0.347E-05  0.347E-05
 -21.494  0.313E-05  0.313E-05
 -21.493  0.282E-05  0.282E-05
 -21.492  0.254E-05  0.254E-05
 -21.491  0.229E-05  0.229E-05
 -21.490  0.207E-05  0.207E-05
 -21.489  0.187E-05  0.187E-05
 -21.488  0.169E-05  0.169E-05
 -21.487  0.153E-05  0.153E-05
 -21.486  0.138E-05  0.138E-05
 -21.485  0.126E-05  0.126E-05
 -21.484  0.114E-05  0.114E-05
 -21.483  0.104E-05  0.104E-05
 -21.482  0.955E-06  0.955E-06
 -21.481  0.879E-06  0.879E-06
 -21.480  0.813E-06  0.813E-06
 -21.479  0.756E-06  0.756E-06
 -21.478  0.708E-06  0.708E-06
 -21.477  0.668E-06  0.668E-06
 -21.476  0.637E-06  0.637E-06
 -21.475  0.612E-06  0.612E-06
 -21.474  0.595E-06  0.595E-06
 -21.473  0.584E-06  0.584E-06
 -21.472  0.580E-06  0.580E-06
 -21.471  0.582E-06  0.582E-06
 -21.470  0.591E-06  0.591E-06
 -21.469  0.606E-06  0.606E-06
 -21.468  0.627E-06  0.627E-06
 -21.467  0.655E-06  0.655E-06
 -21.466  0.689E-06  0.689E-06
 -21.465  0.730E-06  0.730E-06
 -21.464  0.778E-06  0.778E-06
 -21.463  0.833E-06  0.833E-06
 -21.462  0.896E-06  0.896E-06
 -21.461  0.967E-06  0.967E-06
 -21.460  0.105E-05  0.105E-05
 -21.459  0.114E-05  0.114E-05
 -21.458  0.123E-05  0.123E-05
 -21.457  0.134E-05  0.134E-05
 -21.456  0.146E-05  0.146E-05
 -21.455  0.160E-05  0.160E-05
 -21.454  0.174E-05  0.174E-05
 -21.453  0.190E-05  0.190E-05
 -21.452  0.208E-05  0.208E-05
 -21.451  0.227E-05  0.227E-05
 -21.450  0.248E-05  0.248E-05
 -21.449  0.271E-05  0.271E-05
 -21.448  0.295E-05  0.295E-05
 -21.447  0.322E-05  0.322E-05
 -21.446  0.352E-05  0.352E-05
 -21.445  0.384E-05  0.384E-05
 -21.444  0.419E-05  0.419E-05
 -21.443  0.457E-05  0.457E-05
 -21.442  0.498E-05  0.498E-05
 -21.441  0.542E-05  0.542E-05
 -21.440  0.591E-05  0.591E-05
 -21.439  0.643E-05  0.643E-05
 -21.438  0.700E-05  0.700E-05
 -21.437  0.761E-05  0.761E-05
 -21.436  0.828E-05  0.828E-05
 -21.435  0.900E-05  0.900E-05
 -21.434  0.978E-05  0.978E-05
 -21.433  0.106E-04  0.106E-04
 -21.432  0.115E-04  0.115E-04
 -21.431  0.125E-04  0.125E-04
 -21.430  0.136E-04  0.136E-04
 -21.429  0.147E-04  0.147E-04
 -21.428  0.160E-04  0.160E-04
 -21.427  0.173E-04  0.173E-04
 -21.426  0.187E-04  0.187E-04
 -21.425  0.203E-04  0.203E-04
 -21.424  0.219E-04  0.219E-04
 -21.423  0.237E-04  0.237E-04
 -21.422  0.256E-04  0.256E-04
 -21.421  0.277E-04  0.277E-04
 -21.420  0.299E-04  0.299E-04
 -21.419  0.323E-04  0.323E-04
 -21.418  0.348E-04  0.348E-04
 -21.417  0.376E-04  0.376E-04
 -21.416  0.405E-04  0.405E-04
 -21.415  0.437E-04  0.437E-04
 -21.414  0.471E-04  0.471E-04
 -21.413  0.507E-04  0.507E-04
 -21.412  0.546E-04  0.546E-04
 -21.411  0.587E-04  0.587E-04
 -21.410  0.631E-04  0.631E-04
 -21.409  0.679E-04  0.679E-04
 -21.408  0.729E-04  0.729E-04
 -21.407  0.783E-04  0.783E-04
 -21.406  0.841E-04  0.841E-04
 -21.405  0.903E-04  0.903E-04
 -21.404  0.968E-04  0.968E-04
 -21.403  0.104E-03  0.104E-03
 -21.402  0.111E-03  0.111E-03
 -21.401  0.119E-03  0.119E-03
 -21.400  0.128E-03  0.128E-03
 -21.399  0.137E-03  0.137E-03
 -21.398  0.146E-03  0.146E-03
 -21.397  0.156E-03  0.156E-03
 -21.396  0.167E-03  0.167E-03
 -21.395  0.179E-03  0.179E-03
 -21.394  0.191E-03  0.191E-03
 -21.393  0.204E-03  0.204E-03
 -21.392  0.218E-03  0.218E-03
 -21.391  0.232E-03  0.232E-03
 -21.390  0.247E-03  0.247E-03
 -21.389  0.264E-03  0.264E-03
 -21.388  0.281E-03  0.281E-03
 -21.387  0.299E-03  0.299E-03
 -21.386  0.319E-03  0.319E-03
 -21.385  0.339E-03  0.339E-03
 -21.384  0.361E-03  0.361E-03
 -21.383  0.383E-03  0.383E-03
 -21.382  0.408E-03  0.408E-03
 -21.381  0.433E-03  0.433E-03
 -21.380  0.460E-03  0.460E-03
 -21.379  0.488E-03  0.488E-03
 -21.378  0.518E-03  0.518E-03
 -21.377  0.549E-03  0.549E-03
 -21.376  0.582E-03  0.582E-03
 -21.375  0.617E-03  0.617E-03
 -21.374  0.653E-03  0.653E-03
 -21.373  0.691E-03  0.691E-03
 -21.372  0.732E-03  0.732E-03
 -21.371  0.774E-03  0.774E-03
 -21.370  0.819E-03  0.819E-03
 -21.369  0.865E-03  0.865E-03
 -21.368  0.914E-03  0.914E-03
 -21.367  0.965E-03  0.965E-03
 -21.366  0.102E-02  0.102E-02
 -21.365  0.108E-02  0.108E-02
 -21.364  0.113E-02  0.113E-02
 -21.363  0.120E-02  0.120E-02
 -21.362  0.126E-02  0.126E-02
 -21.361  0.133E-02  0.133E-02
 -21.360  0.140E-02  0.140E-02
 -21.359  0.147E-02  0.147E-02
 -21.358  0.155E-02  0.155E-02
 -21.357  0.163E-02  0.163E-02
 -21.356  0.171E-02  0.171E-02
 -21.355  0.180E-02  0.180E-02
 -21.354  0.189E-02  0.189E-02
 -21.353  0.198E-02  0.198E-02
 -21.352  0.208E-02  0.208E-02
 -21.351  0.218E-02  0.218E-02
 -21.350  0.229E-02  0.229E-02
 -21.349  0.240E-02  0.240E-02
 -21.348  0.251E-02  0.251E-02
 -21.347  0.263E-02  0.263E-02
 -21.346  0.275E-02  0.275E-02
 -21.345  0.288E-02  0.288E-02
 -21.344  0.301E-02  0.301E-02
 -21.343  0.315E-02  0.315E-02
 -21.342  0.329E-02  0.329E-02
 -21.341  0.344E-02  0.344E-02
 -21.340  0.359E-02  0.359E-02
 -21.339  0.375E-02  0.375E-02
 -21.338  0.391E-02  0.391E-02
 -21.337  0.408E-02  0.408E-02
 -21.336  0.425E-02  0.425E-02
 -21.335  0.443E-02  0.443E-02
 -21.334  0.462E-02  0.462E-02
 -21.333  0.481E-02  0.481E-02
 -21.332  0.500E-02  0.500E-02
 -21.331  0.520E-02  0.520E-02
 -21.330  0.541E-02  0.541E-02
 -21.329  0.563E-02  0.563E-02
 -21.328  0.585E-02  0.585E-02
 -21.327  0.607E-02  0.607E-02
 -21.326  0.630E-02  0.630E-02
 -21.325  0.654E-02  0.654E-02
 -21.324  0.679E-02  0.679E-02
 -21.323  0.704E-02  0.704E-02
 -21.322  0.730E-02  0.730E-02
 -21.321  0.756E-02  0.756E-02
 -21.320  0.783E-02  0.783E-02
 -21.319  0.811E-02  0.811E-02
 -21.318  0.839E-02  0.839E-02
 -21.317  0.868E-02  0.868E-02
 -21.316  0.898E-02  0.898E-02
 -21.315  0.928E-02  0.928E-02
 -21.314  0.959E-02  0.959E-02
 -21.313  0.991E-02  0.991E-02
 -21.312  0.102E-01  0.102E-01
 -21.311  0.106E-01  0.106E-01
 -21.310  0.109E-01  0.109E-01
 -21.309  0.112E-01  0.112E-01
 -21.308  0.116E-01  0.116E-01
 -21.307  0.119E-01  0.119E-01
 -21.306  0.123E-01  0.123E-01
 -21.305  0.127E-01  0.127E-01
 -21.304  0.130E-01  0.130E-01
 -21.303  0.134E-01  0.134E-01
 -21.302  0.138E-01  0.138E-01
 -21.301  0.142E-01  0.142E-01
 -21.300  0.146E-01  0.146E-01
 -21.299  0.150E-01  0.150E-01
 -21.298  0.154E-01  0.154E-01
 -21.297  0.158E-01  0.158E-01
 -21.296  0.162E-01  0.162E-01
 -21.295  0.166E-01  0.166E-01
 -21.294  0.170E-01  0.170E-01
 -21.293  0.175E-01  0.175E-01
 -21.292  0.179E-01  0.179E-01
 -21.291  0.183E-01  0.183E-01
 -21.290  0.188E-01  0.188E-01
 -21.289  0.192E-01  0.192E-01
 -21.288  0.197E-01  0.197E-01
 -21.287  0.201E-01  0.201E-01
 -21.286  0.206E-01  0.206E-01
 -21.285  0.211E-01  0.211E-01
 -21.284  0.215E-01  0.215E-01
 -21.283  0.220E-01  0.220E-01
 -21.282  0.224E-01  0.224E-01
 -21.281  0.229E-01  0.229E-01
 -21.280  0.234E-01  0.234E-01
 -21.279  0.239E-01  0.239E-01
 -21.278  0.243E-01  0.243E-01
 -21.277  0.248E-01  0.248E-01
 -21.276  0.253E-01  0.253E-01
 -21.275  0.258E-01  0.258E-01
 -21.274  0.263E-01  0.263E-01
 -21.273  0.267E-01  0.267E-01
 -21.272  0.272E-01  0.272E-01
 -21.271  0.277E-01  0.277E-01
 -21.270  0.282E-01  0.282E-01
 -21.269  0.287E-01  0.287E-01
 -21.268  0.292E-01  0.292E-01
 -21.267  0.296E-01  0.296E-01
 -21.266  0.301E-01  0.301E-01
 -21.265  0.306E-01  0.306E-01
 -21.264  0.311E-01  0.311E-01
 -21.263  0.316E-01  0.316E-01
 -21.262  0.320E-01  0.320E-01
 -21.261  0.325E-01  0.325E-01
 -21.260  0.330E-01  0.330E-01
 -21.259  0.335E-01  0.335E-01
 -21.258  0.340E-01  0.340E-01
 -21.257  0.344E-01  0.344E-01
 -21.256  0.349E-01  0.349E-01
 -21.255  0.354E-01  0.354E-01
 -21.254  0.358E-01  0.358E-01
 -21.253  0.363E-01  0.363E-01
 -21.252  0.368E-01  0.368E-01
 -21.251  0.372E-01  0.372E-01
 -21.250  0.377E-01  0.377E-01
 -21.249  0.381E-01  0.381E-01
 -21.248  0.386E-01  0.386E-01
 -21.247  0.391E-01  0.391E-01
 -21.246  0.395E-01  0.395E-01
 -21.245  0.400E-01  0.400E-01
 -21.244  0.404E-01  0.404E-01
 -21.243  0.409E-01  0.409E-01
 -21.242  0.413E-01  0.413E-01
 -21.241  0.418E-01  0.418E-01
 -21.240  0.422E-01  0.422E-01
 -21.239  0.426E-01  0.426E-01
 -21.238  0.431E-01  0.431E-01
 -21.237  0.435E-01  0.435E-01
 -21.236  0.440E-01  0.440E-01
 -21.235  0.444E-01  0.444E-01
 -21.234  0.448E-01  0.448E-01
 -21.233  0.453E-01  0.453E-01
 -21.232  0.457E-01  0.457E-01
 -21.231  0.462E-01  0.462E-01
 -21.230  0.466E-01  0.466E-01
 -21.229  0.470E-01  0.470E-01
 -21.228  0.475E-01  0.475E-01
 -21.227  0.479E-01  0.479E-01
 -21.226  0.484E-01  0.484E-01
 -21.225  0.488E-01  0.488E-01
 -21.224  0.492E-01  0.492E-01
 -21.223  0.497E-01  0.497E-01
 -21.222  0.501E-01  0.501E-01
 -21.221  0.506E-01  0.506E-01
 -21.220  0.510E-01  0.510E-01
 -21.219  0.515E-01  0.515E-01
 -21.218  0.519E-01  0.519E-01
 -21.217  0.524E-01  0.524E-01
 -21.216  0.528E-01  0.528E-01
 -21.215  0.533E-01  0.533E-01
 -21.214  0.537E-01  0.537E-01
 -21.213  0.542E-01  0.542E-01
 -21.212  0.547E-01  0.547E-01
 -21.211  0.551E-01  0.551E-01
 -21.210  0.556E-01  0.556E-01
 -21.209  0.561E-01  0.561E-01
 -21.208  0.566E-01  0.566E-01
 -21.207  0.570E-01  0.570E-01
 -21.206  0.575E-01  0.575E-01
 -21.205  0.580E-01  0.580E-01
 -21.204  0.585E-01  0.585E-01
 -21.203  0.590E-01  0.590E-01
 -21.202  0.595E-01  0.595E-01
 -21.201  0.600E-01  0.600E-01
 -21.200  0.605E-01  0.605E-01
 -21.199  0.610E-01  0.610E-01
 -21.198  0.615E-01  0.615E-01
 -21.197  0.620E-01  0.620E-01
 -21.196  0.626E-01  0.626E-01
 -21.195  0.631E-01  0.631E-01
 -21.194  0.636E-01  0.636E-01
 -21.193  0.641E-01  0.641E-01
 -21.192  0.647E-01  0.647E-01
 -21.191  0.652E-01  0.652E-01
 -21.190  0.657E-01  0.657E-01
 -21.189  0.663E-01  0.663E-01
 -21.188  0.668E-01  0.668E-01
 -21.187  0.673E-01  0.673E-01
 -21.186  0.679E-01  0.679E-01
 -21.185  0.684E-01  0.684E-01
 -21.184  0.690E-01  0.690E-01
 -21.183  0.695E-01  0.695E-01
 -21.182  0.701E-01  0.701E-01
 -21.181  0.706E-01  0.706E-01
 -21.180  0.711E-01  0.711E-01
 -21.179  0.717E-01  0.717E-01
 -21.178  0.722E-01  0.722E-01
 -21.177  0.728E-01  0.728E-01
 -21.176  0.733E-01  0.733E-01
 -21.175  0.738E-01  0.738E-01
 -21.174  0.744E-01  0.744E-01
 -21.173  0.749E-01  0.749E-01
 -21.172  0.754E-01  0.754E-01
 -21.171  0.760E-01  0.760E-01
 -21.170  0.765E-01  0.765E-01
 -21.169  0.770E-01  0.770E-01
 -21.168  0.775E-01  0.775E-01
 -21.167  0.780E-01  0.780E-01
 -21.166  0.785E-01  0.785E-01
 -21.165  0.790E-01  0.790E-01
 -21.164  0.794E-01  0.794E-01
 -21.163  0.799E-01  0.799E-01
 -21.162  0.804E-01  0.804E-01
 -21.161  0.808E-01  0.808E-01
 -21.160  0.813E-01  0.813E-01
 -21.159  0.817E-01  0.817E-01
 -21.158  0.821E-01  0.821E-01
 -21.157  0.826E-01  0.826E-01
 -21.156  0.830E-01  0.830E-01
 -21.155  0.834E-01  0.834E-01
 -21.154  0.837E-01  0.837E-01
 -21.153  0.841E-01  0.841E-01
 -21.152  0.845E-01  0.845E-01
 -21.151  0.848E-01  0.848E-01
 -21.150  0.851E-01  0.851E-01
 -21.149  0.855E-01  0.855E-01
 -21.148  0.858E-01  0.858E-01
 -21.147  0.861E-01  0.861E-01
 -21.146  0.863E-01  0.863E-01
 -21.145  0.866E-01  0.866E-01
 -21.144  0.868E-01  0.868E-01
 -21.143  0.871E-01  0.871E-01
 -21.142  0.873E-01  0.873E-01
 -21.141  0.875E-01  0.875E-01
 -21.140  0.877E-01  0.877E-01
 -21.139  0.879E-01  0.879E-01
 -21.138  0.880E-01  0.880E-01
 -21.137  0.882E-01  0.882E-01
 -21.136  0.883E-01  0.883E-01
 -21.135  0.884E-01  0.884E-01
 -21.134  0.885E-01  0.885E-01
 -21.133  0.886E-01  0.886E-01
 -21.132  0.886E-01  0.886E-01
 -21.131  0.887E-01  0.887E-01
 -21.130  0.887E-01  0.887E-01
 -21.129  0.887E-01  0.887E-01
 -21.128  0.887E-01  0.887E-01
 -21.127  0.887E-01  0.887E-01
 -21.126  0.886E-01  0.886E-01
 -21.125  0.886E-01  0.886E-01
 -21.124  0.885E-01  0.885E-01
 -21.123  0.885E-01  0.885E-01
 -21.122  0.884E-01  0.884E-01
 -21.121  0.883E-01  0.883E-01
 -21.120  0.881E-01  0.881E-01
 -21.119  0.880E-01  0.880E-01
 -21.118  0.879E-01  0.879E-01
 -21.117  0.877E-01  0.877E-01
 -21.116  0.875E-01  0.875E-01
 -21.115  0.874E-01  0.874E-01
 -21.114  0.872E-01  0.872E-01
 -21.113  0.870E-01  0.870E-01
 -21.112  0.867E-01  0.867E-01
 -21.111  0.865E-01  0.865E-01
 -21.110  0.863E-01  0.863E-01
 -21.109  0.860E-01  0.860E-01
 -21.108  0.858E-01  0.858E-01
 -21.107  0.855E-01  0.855E-01
 -21.106  0.852E-01  0.852E-01
 -21.105  0.849E-01  0.849E-01
 -21.104  0.847E-01  0.847E-01
 -21.103  0.844E-01  0.844E-01
 -21.102  0.841E-01  0.841E-01
 -21.101  0.837E-01  0.837E-01
 -21.100  0.834E-01  0.834E-01
 -21.099  0.831E-01  0.831E-01
 -21.098  0.828E-01  0.828E-01
 -21.097  0.824E-01  0.824E-01
 -21.096  0.821E-01  0.821E-01
 -21.095  0.818E-01  0.818E-01
 -21.094  0.814E-01  0.814E-01
 -21.093  0.811E-01  0.811E-01
 -21.092  0.807E-01  0.807E-01
 -21.091  0.804E-01  0.804E-01
 -21.090  0.800E-01  0.800E-01
 -21.089  0.797E-01  0.797E-01
 -21.088  0.793E-01  0.793E-01
 -21.087  0.790E-01  0.790E-01
 -21.086  0.786E-01  0.786E-01
 -21.085  0.782E-01  0.782E-01
 -21.084  0.779E-01  0.779E-01
 -21.083  0.775E-01  0.775E-01
 -21.082  0.772E-01  0.772E-01
 -21.081  0.768E-01  0.768E-01
 -21.080  0.765E-01  0.765E-01
 -21.079  0.761E-01  0.761E-01
 -21.078  0.758E-01  0.758E-01
 -21.077  0.754E-01  0.754E-01
 -21.076  0.751E-01  0.751E-01
 -21.075  0.747E-01  0.747E-01
 -21.074  0.744E-01  0.744E-01
 -21.073  0.741E-01  0.741E-01
 -21.072  0.737E-01  0.737E-01
 -21.071  0.734E-01  0.734E-01
 -21.070  0.731E-01  0.731E-01
 -21.069  0.727E-01  0.727E-01
 -21.068  0.724E-01  0.724E-01
 -21.067  0.721E-01  0.721E-01
 -21.066  0.718E-01  0.718E-01
 -21.065  0.715E-01  0.715E-01
 -21.064  0.712E-01  0.712E-01
 -21.063  0.709E-01  0.709E-01
 -21.062  0.706E-01  0.706E-01
 -21.061  0.703E-01  0.703E-01
 -21.060  0.700E-01  0.700E-01
 -21.059  0.697E-01  0.697E-01
 -21.058  0.695E-01  0.695E-01
 -21.057  0.692E-01  0.692E-01
 -21.056  0.689E-01  0.689E-01
 -21.055  0.686E-01  0.686E-01
 -21.054  0.684E-01  0.684E-01
 -21.053  0.681E-01  0.681E-01
 -21.052  0.679E-01  0.679E-01
 -21.051  0.676E-01  0.676E-01
 -21.050  0.674E-01  0.674E-01
 -21.049  0.672E-01  0.672E-01
 -21.048  0.669E-01  0.669E-01
 -21.047  0.667E-01  0.667E-01
 -21.046  0.665E-01  0.665E-01
 -21.045  0.662E-01  0.662E-01
 -21.044  0.660E-01  0.660E-01
 -21.043  0.658E-01  0.658E-01
 -21.042  0.656E-01  0.656E-01
 -21.041  0.654E-01  0.654E-01
 -21.040  0.652E-01  0.652E-01
 -21.039  0.650E-01  0.650E-01
 -21.038  0.648E-01  0.648E-01
 -21.037  0.646E-01  0.646E-01
 -21.036  0.645E-01  0.645E-01
 -21.035  0.643E-01  0.643E-01
 -21.034  0.641E-01  0.641E-01
 -21.033  0.640E-01  0.640E-01
 -21.032  0.638E-01  0.638E-01
 -21.031  0.636E-01  0.636E-01
 -21.030  0.635E-01  0.635E-01
 -21.029  0.633E-01  0.633E-01
 -21.028  0.632E-01  0.632E-01
 -21.027  0.631E-01  0.631E-01
 -21.026  0.629E-01  0.629E-01
 -21.025  0.628E-01  0.628E-01
 -21.024  0.627E-01  0.627E-01
 -21.023  0.626E-01  0.626E-01
 -21.022  0.625E-01  0.625E-01
 -21.021  0.624E-01  0.624E-01
 -21.020  0.623E-01  0.623E-01
 -21.019  0.622E-01  0.622E-01
 -21.018  0.621E-01  0.621E-01
 -21.017  0.620E-01  0.620E-01
 -21.016  0.619E-01  0.619E-01
 -21.015  0.619E-01  0.619E-01
 -21.014  0.618E-01  0.618E-01
 -21.013  0.617E-01  0.617E-01
 -21.012  0.617E-01  0.617E-01
 -21.011  0.617E-01  0.617E-01
 -21.010  0.616E-01  0.616E-01
 -21.009  0.616E-01  0.616E-01
 -21.008  0.616E-01  0.616E-01
 -21.007  0.616E-01  0.616E-01
 -21.006  0.615E-01  0.615E-01
 -21.005  0.615E-01  0.615E-01
 -21.004  0.616E-01  0.616E-01
 -21.003  0.616E-01  0.616E-01
 -21.002  0.616E-01  0.616E-01
 -21.001  0.616E-01  0.616E-01
 -21.000  0.617E-01  0.617E-01
 -20.999  0.617E-01  0.617E-01
 -20.998  0.618E-01  0.618E-01
 -20.997  0.618E-01  0.618E-01
 -20.996  0.619E-01  0.619E-01
 -20.995  0.620E-01  0.620E-01
 -20.994  0.620E-01  0.620E-01
 -20.993  0.621E-01  0.621E-01
 -20.992  0.622E-01  0.622E-01
 -20.991  0.624E-01  0.624E-01
 -20.990  0.625E-01  0.625E-01
 -20.989  0.626E-01  0.626E-01
 -20.988  0.627E-01  0.627E-01
 -20.987  0.629E-01  0.629E-01
 -20.986  0.630E-01  0.630E-01
 -20.985  0.632E-01  0.632E-01
 -20.984  0.634E-01  0.634E-01
 -20.983  0.635E-01  0.635E-01
 -20.982  0.637E-01  0.637E-01
 -20.981  0.639E-01  0.639E-01
 -20.980  0.641E-01  0.641E-01
 -20.979  0.643E-01  0.643E-01
 -20.978  0.645E-01  0.645E-01