# E (eV)   ldos(E)   pdos(E)   
 -21.943  0.656E-04  0.656E-04
 -21.942  0.716E-04  0.716E-04
 -21.941  0.782E-04  0.782E-04
 -21.940  0.853E-04  0.853E-04
 -21.939  0.931E-04  0.931E-04
 -21.938  0.101E-03  0.101E-03
 -21.937  0.111E-03  0.111E-03
 -21.936  0.120E-03  0.120E-03
 -21.935  0.131E-03  0.131E-03
 -21.934  0.143E-03  0.143E-03
 -21.933  0.155E-03  0.155E-03
 -21.932  0.169E-03  0.169E-03
 -21.931  0.183E-03  0.183E-03
 -21.930  0.199E-03  0.199E-03
 -21.929  0.216E-03  0.216E-03
 -21.928  0.235E-03  0.235E-03
 -21.927  0.255E-03  0.255E-03
 -21.926  0.276E-03  0.276E-03
 -21.925  0.300E-03  0.300E-03
 -21.924  0.325E-03  0.325E-03
 -21.923  0.352E-03  0.352E-03
 -21.922  0.381E-03  0.381E-03
 -21.921  0.412E-03  0.412E-03
 -21.920  0.446E-03  0.446E-03
 -21.919  0.482E-03  0.482E-03
 -21.918  0.521E-03  0.521E-03
 -21.917  0.563E-03  0.563E-03
 -21.916  0.608E-03  0.608E-03
 -21.915  0.656E-03  0.656E-03
 -21.914  0.708E-03  0.708E-03
 -21.913  0.763E-03  0.763E-03
 -21.912  0.823E-03  0.823E-03
 -21.911  0.887E-03  0.887E-03
 -21.910  0.955E-03  0.955E-03
 -21.909  0.103E-02  0.103E-02
 -21.908  0.111E-02  0.111E-02
 -21.907  0.119E-02  0.119E-02
 -21.906  0.128E-02  0.128E-02
 -21.905  0.138E-02  0.138E-02
 -21.904  0.148E-02  0.148E-02
 -21.903  0.159E-02  0.159E-02
 -21.902  0.170E-02  0.170E-02
 -21.901  0.183E-02  0.183E-02
 -21.900  0.196E-02  0.196E-02
 -21.899  0.210E-02  0.210E-02
 -21.898  0.225E-02  0.225E-02
 -21.897  0.241E-02  0.241E-02
 -21.896  0.258E-02  0.258E-02
 -21.895  0.276E-02  0.276E-02
 -21.894  0.295E-02  0.295E-02
 -21.893  0.316E-02  0.316E-02
 -21.892  0.337E-02  0.337E-02
 -21.891  0.361E-02  0.361E-02
 -21.890  0.385E-02  0.385E-02
 -21.889  0.411E-02  0.411E-02
 -21.888  0.438E-02  0.438E-02
 -21.887  0.467E-02  0.467E-02
 -21.886  0.498E-02  0.498E-02
 -21.885  0.531E-02  0.531E-02
 -21.884  0.565E-02  0.565E-02
 -21.883  0.602E-02  0.602E-02
 -21.882  0.641E-02  0.641E-02
 -21.881  0.681E-02  0.681E-02
 -21.880  0.724E-02  0.724E-02
 -21.879  0.770E-02  0.770E-02
 -21.878  0.818E-02  0.818E-02
 -21.877  0.868E-02  0.868E-02
 -21.876  0.922E-02  0.922E-02
 -21.875  0.978E-02  0.978E-02
 -21.874  0.104E-01  0.104E-01
 -21.873  0.110E-01  0.110E-01
 -21.872  0.116E-01  0.116E-01
 -21.871  0.123E-01  0.123E-01
 -21.870  0.131E-01  0.131E-01
 -21.869  0.138E-01  0.138E-01
 -21.868  0.146E-01  0.146E-01
 -21.867  0.154E-01  0.154E-01
 -21.866  0.163E-01  0.163E-01
 -21.865  0.172E-01  0.172E-01
 -21.864  0.182E-01  0.182E-01
 -21.863  0.192E-01  0.192E-01
 -21.862  0.203E-01  0.203E-01
 -21.861  0.214E-01  0.214E-01
 -21.860  0.225E-01  0.225E-01
 -21.859  0.237E-01  0.237E-01
 -21.858  0.250E-01  0.250E-01
 -21.857  0.263E-01  0.263E-01
 -21.856  0.277E-01  0.277E-01
 -21.855  0.291E-01  0.291E-01
 -21.854  0.306E-01  0.306E-01
 -21.853  0.322E-01  0.322E-01
 -21.852  0.338E-01  0.338E-01
 -21.851  0.355E-01  0.355E-01
 -21.850  0.372E-01  0.372E-01
 -21.849  0.391E-01  0.391E-01
 -21.848  0.410E-01  0.410E-01
 -21.847  0.429E-01  0.429E-01
 -21.846  0.450E-01  0.450E-01
 -21.845  0.471E-01  0.471E-01
 -21.844  0.493E-01  0.493E-01
 -21.843  0.516E-01  0.516E-01
 -21.842  0.540E-01  0.540E-01
 -21.841  0.564E-01  0.564E-01
 -21.840  0.590E-01  0.590E-01
 -21.839  0.616E-01  0.616E-01
 -21.838  0.643E-01  0.643E-01
 -21.837  0.671E-01  0.671E-01
 -21.836  0.700E-01  0.700E-01
 -21.835  0.730E-01  0.730E-01
 -21.834  0.761E-01  0.761E-01
 -21.833  0.792E-01  0.792E-01
 -21.832  0.825E-01  0.825E-01
 -21.831  0.859E-01  0.859E-01
 -21.830  0.894E-01  0.894E-01
 -21.829  0.930E-01  0.930E-01
 -21.828  0.966E-01  0.966E-01
 -21.827  0.100E+00  0.100E+00
 -21.826  0.104E+00  0.104E+00
 -21.825  0.108E+00  0.108E+00
 -21.824  0.112E+00  0.112E+00
 -21.823  0.117E+00  0.117E+00
 -21.822  0.121E+00  0.121E+00
 -21.821  0.125E+00  0.125E+00
 -21.820  0.130E+00  0.130E+00
 -21.819  0.134E+00  0.134E+00
 -21.818  0.139E+00  0.139E+00
 -21.817  0.144E+00  0.144E+00
 -21.816  0.149E+00  0.149E+00
 -21.815  0.154E+00  0.154E+00
 -21.814  0.159E+00  0.159E+00
 -21.813  0.164E+00  0.164E+00
 -21.812  0.170E+00  0.170E+00
 -21.811  0.175E+00  0.175E+00
 -21.810  0.180E+00  0.180E+00
 -21.809  0.186E+00  0.186E+00
 -21.808  0.192E+00  0.192E+00
 -21.807  0.198E+00  0.198E+00
 -21.806  0.203E+00  0.203E+00
 -21.805  0.209E+00  0.209E+00
 -21.804  0.215E+00  0.215E+00
 -21.803  0.222E+00  0.222E+00
 -21.802  0.228E+00  0.228E+00
 -21.801  0.234E+00  0.234E+00
 -21.800  0.240E+00  0.240E+00
 -21.799  0.247E+00  0.247E+00
 -21.798  0.253E+00  0.253E+00
 -21.797  0.260E+00  0.260E+00
 -21.796  0.266E+00  0.266E+00
 -21.795  0.273E+00  0.273E+00
 -21.794  0.280E+00  0.280E+00
 -21.793  0.286E+00  0.286E+00
 -21.792  0.293E+00  0.293E+00
 -21.791  0.300E+00  0.300E+00
 -21.790  0.306E+00  0.306E+00
 -21.789  0.313E+00  0.313E+00
 -21.788  0.320E+00  0.320E+00
 -21.787  0.327E+00  0.327E+00
 -21.786  0.334E+00  0.334E+00
 -21.785  0.341E+00  0.341E+00
 -21.784  0.347E+00  0.347E+00
 -21.783  0.354E+00  0.354E+00
 -21.782  0.361E+00  0.361E+00
 -21.781  0.368E+00  0.368E+00
 -21.780  0.374E+00  0.374E+00
 -21.779  0.381E+00  0.381E+00
 -21.778  0.388E+00  0.388E+00
 -21.777  0.394E+00  0.394E+00
 -21.776  0.401E+00  0.401E+00
 -21.775  0.407E+00  0.407E+00
 -21.774  0.413E+00  0.413E+00
 -21.773  0.420E+00  0.420E+00
 -21.772  0.426E+00  0.426E+00
 -21.771  0.432E+00  0.432E+00
 -21.770  0.438E+00  0.438E+00
 -21.769  0.444E+00  0.444E+00
 -21.768  0.450E+00  0.450E+00
 -21.767  0.455E+00  0.455E+00
 -21.766  0.461E+00  0.461E+00
 -21.765  0.466E+00  0.466E+00
 -21.764  0.471E+00  0.471E+00
 -21.763  0.476E+00  0.476E+00
 -21.762  0.481E+00  0.481E+00
 -21.761  0.486E+00  0.486E+00
 -21.760  0.491E+00  0.491E+00
 -21.759  0.495E+00  0.495E+00
 -21.758  0.499E+00  0.499E+00
 -21.757  0.503E+00  0.503E+00
 -21.756  0.507E+00  0.507E+00
 -21.755  0.511E+00  0.511E+00
 -21.754  0.514E+00  0.514E+00
 -21.753  0.518E+00  0.518E+00
 -21.752  0.521E+00  0.521E+00
 -21.751  0.524E+00  0.524E+00
 -21.750  0.526E+00  0.526E+00
 -21.749  0.529E+00  0.529E+00
 -21.748  0.531E+00  0.531E+00
 -21.747  0.533E+00  0.533E+00
 -21.746  0.535E+00  0.535E+00
 -21.745  0.536E+00  0.536E+00
 -21.744  0.538E+00  0.538E+00
 -21.743  0.539E+00  0.539E+00
 -21.742  0.540E+00  0.540E+00
 -21.741  0.540E+00  0.540E+00
 -21.740  0.541E+00  0.541E+00
 -21.739  0.541E+00  0.541E+00
 -21.738  0.541E+00  0.541E+00
 -21.737  0.541E+00  0.541E+00
 -21.736  0.540E+00  0.540E+00
 -21.735  0.539E+00  0.539E+00
 -21.734  0.538E+00  0.538E+00
 -21.733  0.537E+00  0.537E+00
 -21.732  0.536E+00  0.536E+00
 -21.731  0.534E+00  0.534E+00
 -21.730  0.532E+00  0.532E+00
 -21.729  0.530E+00  0.530E+00
 -21.728  0.528E+00  0.528E+00
 -21.727  0.525E+00  0.525E+00
 -21.726  0.522E+00  0.522E+00
 -21.725  0.520E+00  0.520E+00
 -21.724  0.516E+00  0.516E+00
 -21.723  0.513E+00  0.513E+00
 -21.722  0.509E+00  0.509E+00
 -21.721  0.506E+00  0.506E+00
 -21.720  0.502E+00  0.502E+00
 -21.719  0.497E+00  0.497E+00
 -21.718  0.493E+00  0.493E+00
 -21.717  0.489E+00  0.489E+00
 -21.716  0.484E+00  0.484E+00
 -21.715  0.479E+00  0.479E+00
 -21.714  0.474E+00  0.474E+00
 -21.713  0.469E+00  0.469E+00
 -21.712  0.464E+00  0.464E+00
 -21.711  0.458E+00  0.458E+00
 -21.710  0.453E+00  0.453E+00
 -21.709  0.447E+00  0.447E+00
 -21.708  0.441E+00  0.441E+00
 -21.707  0.435E+00  0.435E+00
 -21.706  0.429E+00  0.429E+00
 -21.705  0.423E+00  0.423E+00
 -21.704  0.417E+00  0.417E+00
 -21.703  0.411E+00  0.411E+00
 -21.702  0.404E+00  0.404E+00
 -21.701  0.398E+00  0.398E+00
 -21.700  0.391E+00  0.391E+00
 -21.699  0.385E+00  0.385E+00
 -21.698  0.378E+00  0.378E+00
 -21.697  0.371E+00  0.371E+00
 -21.696  0.365E+00  0.365E+00
 -21.695  0.358E+00  0.358E+00
 -21.694  0.351E+00  0.351E+00
 -21.693  0.344E+00  0.344E+00
 -21.692  0.338E+00  0.338E+00
 -21.691  0.331E+00  0.331E+00
 -21.690  0.324E+00  0.324E+00
 -21.689  0.317E+00  0.317E+00
 -21.688  0.310E+00  0.310E+00
 -21.687  0.304E+00  0.304E+00
 -21.686  0.297E+00  0.297E+00
 -21.685  0.290E+00  0.290E+00
 -21.684  0.283E+00  0.283E+00
 -21.683  0.277E+00  0.277E+00
 -21.682  0.270E+00  0.270E+00
 -21.681  0.263E+00  0.263E+00
 -21.680  0.257E+00  0.257E+00
 -21.679  0.250E+00  0.250E+00
 -21.678  0.244E+00  0.244E+00
 -21.677  0.238E+00  0.238E+00
 -21.676  0.231E+00  0.231E+00
 -21.675  0.225E+00  0.225E+00
 -21.674  0.219E+00  0.219E+00
 -21.673  0.213E+00  0.213E+00
 -21.672  0.207E+00  0.207E+00
 -21.671  0.201E+00  0.201E+00
 -21.670  0.195E+00  0.195E+00
 -21.669  0.189E+00  0.189E+00
 -21.668  0.184E+00  0.184E+00
 -21.667  0.178E+00  0.178E+00
 -21.666  0.173E+00  0.173E+00
 -21.665  0.167E+00  0.167E+00
 -21.664  0.162E+00  0.162E+00
 -21.663  0.157E+00  0.157E+00
 -21.662  0.152E+00  0.152E+00
 -21.661  0.147E+00  0.147E+00
 -21.660  0.142E+00  0.142E+00
 -21.659  0.137E+00  0.137E+00
 -21.658  0.132E+00  0.132E+00
 -21.657  0.128E+00  0.128E+00
 -21.656  0.123E+00  0.123E+00
 -21.655  0.119E+00  0.119E+00
 -21.654  0.115E+00  0.115E+00
 -21.653  0.111E+00  0.111E+00
 -21.652  0.107E+00  0.107E+00
 -21.651  0.103E+00  0.103E+00
 -21.650  0.988E-01  0.988E-01
 -21.649  0.950E-01  0.950E-01
 -21.648  0.914E-01  0.914E-01
 -21.647  0.879E-01  0.879E-01
 -21.646  0.844E-01  0.844E-01
 -21.645  0.811E-01  0.811E-01
 -21.644  0.779E-01  0.779E-01
 -21.643  0.747E-01  0.747E-01
 -21.642  0.717E-01  0.717E-01
 -21.641  0.687E-01  0.687E-01
 -21.640  0.659E-01  0.659E-01
 -21.639  0.631E-01  0.631E-01
 -21.638  0.604E-01  0.604E-01
 -21.637  0.579E-01  0.579E-01
 -21.636  0.554E-01  0.554E-01
 -21.635  0.529E-01  0.529E-01
 -21.634  0.506E-01  0.506E-01
 -21.633  0.484E-01  0.484E-01
 -21.632  0.462E-01  0.462E-01
 -21.631  0.441E-01  0.441E-01
 -21.630  0.421E-01  0.421E-01
 -21.629  0.401E-01  0.401E-01
 -21.628  0.383E-01  0.383E-01
 -21.627  0.365E-01  0.365E-01
 -21.626  0.348E-01  0.348E-01
 -21.625  0.331E-01  0.331E-01
 -21.624  0.315E-01  0.315E-01
 -21.623  0.300E-01  0.300E-01
 -21.622  0.285E-01  0.285E-01
 -21.621  0.271E-01  0.271E-01
 -21.620  0.257E-01  0.257E-01
 -21.619  0.245E-01  0.245E-01
 -21.618  0.232E-01  0.232E-01
 -21.617  0.220E-01  0.220E-01
 -21.616  0.209E-01  0.209E-01
 -21.615  0.198E-01  0.198E-01
 -21.614  0.188E-01  0.188E-01
 -21.613  0.178E-01  0.178E-01
 -21.612  0.168E-01  0.168E-01
 -21.611  0.159E-01  0.159E-01
 -21.610  0.151E-01  0.151E-01
 -21.609  0.143E-01  0.143E-01
 -21.608  0.135E-01  0.135E-01
 -21.607  0.127E-01  0.127E-01
 -21.606  0.120E-01  0.120E-01
 -21.605  0.114E-01  0.114E-01
 -21.604  0.107E-01  0.107E-01
 -21.603  0.101E-01  0.101E-01
 -21.602  0.953E-02  0.953E-02
 -21.601  0.898E-02  0.898E-02
 -21.600  0.846E-02  0.846E-02
 -21.599  0.797E-02  0.797E-02
 -21.598  0.750E-02  0.750E-02
 -21.597  0.706E-02  0.706E-02
 -21.596  0.664E-02  0.664E-02
 -21.595  0.624E-02  0.624E-02
 -21.594  0.586E-02  0.586E-02
 -21.593  0.550E-02  0.550E-02
 -21.592  0.517E-02  0.517E-02
 -21.591  0.485E-02  0.485E-02
 -21.590  0.455E-02  0.455E-02
 -21.589  0.426E-02  0.426E-02
 -21.588  0.400E-02  0.400E-02
 -21.587  0.374E-02  0.374E-02
 -21.586  0.350E-02  0.350E-02
 -21.585  0.328E-02  0.328E-02
 -21.584  0.307E-02  0.307E-02
 -21.583  0.287E-02  0.287E-02
 -21.582  0.268E-02  0.268E-02
 -21.581  0.251E-02  0.251E-02
 -21.580  0.234E-02  0.234E-02
 -21.579  0.218E-02  0.218E-02
 -21.578  0.204E-02  0.204E-02
 -21.577  0.190E-02  0.190E-02
 -21.576  0.177E-02  0.177E-02
 -21.575  0.165E-02  0.165E-02
 -21.574  0.154E-02  0.154E-02
 -21.573  0.143E-02  0.143E-02
 -21.572  0.133E-02  0.133E-02
 -21.571  0.124E-02  0.124E-02
 -21.570  0.115E-02  0.115E-02
 -21.569  0.107E-02  0.107E-02
 -21.568  0.996E-03  0.996E-03
 -21.567  0.925E-03  0.925E-03
 -21.566  0.859E-03  0.859E-03
 -21.565  0.797E-03  0.797E-03
 -21.564  0.739E-03  0.739E-03
 -21.563  0.685E-03  0.685E-03
 -21.562  0.635E-03  0.635E-03
 -21.561  0.588E-03  0.588E-03
 -21.560  0.544E-03  0.544E-03
 -21.559  0.504E-03  0.504E-03
 -21.558  0.466E-03  0.466E-03
 -21.557  0.431E-03  0.431E-03
 -21.556  0.398E-03  0.398E-03
 -21.555  0.368E-03  0.368E-03
 -21.554  0.340E-03  0.340E-03
 -21.553  0.314E-03  0.314E-03
 -21.552  0.290E-03  0.290E-03
 -21.551  0.267E-03  0.267E-03
 -21.550  0.246E-03  0.246E-03
 -21.549  0.227E-03  0.227E-03
 -21.548  0.209E-03  0.209E-03
 -21.547  0.192E-03  0.192E-03
 -21.546  0.177E-03  0.177E-03
 -21.545  0.163E-03  0.163E-03
 -21.544  0.150E-03  0.150E-03
 -21.543  0.138E-03  0.138E-03
 -21.542  0.126E-03  0.126E-03
 -21.541  0.116E-03  0.116E-03
 -21.540  0.107E-03  0.107E-03
 -21.539  0.978E-04  0.978E-04
 -21.538  0.897E-04  0.897E-04
 -21.537  0.822E-04  0.822E-04
 -21.536  0.753E-04  0.753E-04
 -21.535  0.690E-04  0.690E-04
 -21.534  0.632E-04  0.632E-04
 -21.533  0.578E-04  0.578E-04
 -21.532  0.529E-04  0.529E-04
 -21.531  0.483E-04  0.483E-04
 -21.530  0.442E-04  0.442E-04
 -21.529  0.404E-04  0.404E-04
 -21.528  0.369E-04  0.369E-04
 -21.527  0.336E-04  0.336E-04
 -21.526  0.307E-04  0.307E-04
 -21.525  0.280E-04  0.280E-04
 -21.524  0.255E-04  0.255E-04
 -21.523  0.233E-04  0.233E-04
 -21.522  0.212E-04  0.212E-04
 -21.521  0.193E-04  0.193E-04
 -21.520  0.175E-04  0.175E-04
 -21.519  0.160E-04  0.160E-04
 -21.518  0.145E-04  0.145E-04
 -21.517  0.132E-04  0.132E-04
 -21.516  0.120E-04  0.120E-04
 -21.515  0.109E-04  0.109E-04
 -21.514  0.988E-05  0.988E-05
 -21.513  0.896E-05  0.896E-05
 -21.512  0.813E-05  0.813E-05
 -21.511  0.737E-05  0.737E-05
 -21.510  0.668E-05  0.668E-05
 -21.509  0.605E-05  0.605E-05
 -21.508  0.548E-05  0.548E-05
 -21.507  0.496E-05  0.496E-05
 -21.506  0.448E-05  0.448E-05
 -21.505  0.405E-05  0.405E-05
 -21.504  0.367E-05  0.367E-05
 -21.503  0.331E-05  0.331E-05
 -21.502  0.299E-05  0.299E-05
 -21.501  0.270E-05  0.270E-05
 -21.500  0.244E-05  0.244E-05
 -21.499  0.220E-05  0.220E-05
 -21.498  0.199E-05  0.199E-05
 -21.497  0.180E-05  0.180E-05
 -21.496  0.162E-05  0.162E-05
 -21.495  0.146E-05  0.146E-05
 -21.494  0.132E-05  0.132E-05
 -21.493  0.119E-05  0.119E-05
 -21.492  0.108E-05  0.108E-05
 -21.491  0.974E-06  0.974E-06
 -21.490  0.881E-06  0.881E-06
 -21.489  0.798E-06  0.798E-06
 -21.488  0.725E-06  0.725E-06
 -21.487  0.659E-06  0.659E-06
 -21.486  0.601E-06  0.601E-06
 -21.485  0.550E-06  0.550E-06
 -21.484  0.505E-06  0.505E-06
 -21.483  0.466E-06  0.466E-06
 -21.482  0.432E-06  0.432E-06
 -21.481  0.403E-06  0.403E-06
 -21.480  0.379E-06  0.379E-06
 -21.479  0.360E-06  0.360E-06
 -21.478  0.344E-06  0.344E-06
 -21.477  0.333E-06  0.333E-06
 -21.476  0.325E-06  0.325E-06
 -21.475  0.321E-06  0.321E-06
 -21.474  0.321E-06  0.321E-06
 -21.473  0.324E-06  0.324E-06
 -21.472  0.331E-06  0.331E-06
 -21.471  0.342E-06  0.342E-06
 -21.470  0.356E-06  0.356E-06
 -21.469  0.373E-06  0.373E-06
 -21.468  0.395E-06  0.395E-06
 -21.467  0.420E-06  0.420E-06
 -21.466  0.449E-06  0.449E-06
 -21.465  0.483E-06  0.483E-06
 -21.464  0.522E-06  0.522E-06
 -21.463  0.565E-06  0.565E-06
 -21.462  0.613E-06  0.613E-06
 -21.461  0.667E-06  0.667E-06
 -21.460  0.727E-06  0.727E-06
 -21.459  0.793E-06  0.793E-06
 -21.458  0.867E-06  0.867E-06
 -21.457  0.947E-06  0.947E-06
 -21.456  0.104E-05  0.104E-05
 -21.455  0.113E-05  0.113E-05
 -21.454  0.124E-05  0.124E-05
 -21.453  0.136E-05  0.136E-05
 -21.452  0.148E-05  0.148E-05
 -21.451  0.162E-05  0.162E-05
 -21.450  0.178E-05  0.178E-05
 -21.449  0.194E-05  0.194E-05
 -21.448  0.212E-05  0.212E-05
 -21.447  0.232E-05  0.232E-05
 -21.446  0.254E-05  0.254E-05
 -21.445  0.277E-05  0.277E-05
 -21.444  0.303E-05  0.303E-05
 -21.443  0.331E-05  0.331E-05
 -21.442  0.361E-05  0.361E-05
 -21.441  0.393E-05  0.393E-05
 -21.440  0.429E-05  0.429E-05
 -21.439  0.467E-05  0.467E-05
 -21.438  0.509E-05  0.509E-05
 -21.437  0.555E-05  0.555E-05
 -21.436  0.604E-05  0.604E-05
 -21.435  0.657E-05  0.657E-05
 -21.434  0.714E-05  0.714E-05
 -21.433  0.777E-05  0.777E-05
 -21.432  0.844E-05  0.844E-05
 -21.431  0.917E-05  0.917E-05
 -21.430  0.996E-05  0.996E-05
 -21.429  0.108E-04  0.108E-04
 -21.428  0.117E-04  0.117E-04
 -21.427  0.127E-04  0.127E-04
 -21.426  0.138E-04  0.138E-04
 -21.425  0.149E-04  0.149E-04
 -21.424  0.162E-04  0.162E-04
 -21.423  0.175E-04  0.175E-04
 -21.422  0.189E-04  0.189E-04
 -21.421  0.205E-04  0.205E-04
 -21.420  0.222E-04  0.222E-04
 -21.419  0.239E-04  0.239E-04
 -21.418  0.259E-04  0.259E-04
 -21.417  0.279E-04  0.279E-04
 -21.416  0.302E-04  0.302E-04
 -21.415  0.325E-04  0.325E-04
 -21.414  0.351E-04  0.351E-04
 -21.413  0.378E-04  0.378E-04
 -21.412  0.408E-04  0.408E-04
 -21.411  0.439E-04  0.439E-04
 -21.410  0.473E-04  0.473E-04
 -21.409  0.509E-04  0.509E-04
 -21.408  0.547E-04  0.547E-04
 -21.407  0.588E-04  0.588E-04
 -21.406  0.632E-04  0.632E-04
 -21.405  0.680E-04  0.680E-04
 -21.404  0.730E-04  0.730E-04
 -21.403  0.783E-04  0.783E-04
 -21.402  0.841E-04  0.841E-04
 -21.401  0.902E-04  0.902E-04
 -21.400  0.967E-04  0.967E-04
 -21.399  0.104E-03  0.104E-03
 -21.398  0.111E-03  0.111E-03
 -21.397  0.119E-03  0.119E-03
 -21.396  0.127E-03  0.127E-03
 -21.395  0.136E-03  0.136E-03
 -21.394  0.145E-03  0.145E-03
 -21.393  0.156E-03  0.156E-03
 -21.392  0.166E-03  0.166E-03
 -21.391  0.177E-03  0.177E-03
 -21.390  0.189E-03  0.189E-03
 -21.389  0.202E-03  0.202E-03
 -21.388  0.216E-03  0.216E-03
 -21.387  0.230E-03  0.230E-03
 -21.386  0.245E-03  0.245E-03
 -21.385  0.261E-03  0.261E-03
 -21.384  0.278E-03  0.278E-03
 -21.383  0.296E-03  0.296E-03
 -21.382  0.315E-03  0.315E-03
 -21.381  0.335E-03  0.335E-03
 -21.380  0.356E-03  0.356E-03
 -21.379  0.379E-03  0.379E-03
 -21.378  0.402E-03  0.402E-03
 -21.377  0.427E-03  0.427E-03
 -21.376  0.453E-03  0.453E-03
 -21.375  0.481E-03  0.481E-03
 -21.374  0.510E-03  0.510E-03
 -21.373  0.540E-03  0.540E-03
 -21.372  0.573E-03  0.573E-03
 -21.371  0.607E-03  0.607E-03
 -21.370  0.642E-03  0.642E-03
 -21.369  0.680E-03  0.680E-03
 -21.368  0.719E-03  0.719E-03
 -21.367  0.760E-03  0.760E-03
 -21.366  0.803E-03  0.803E-03
 -21.365  0.849E-03  0.849E-03
 -21.364  0.897E-03  0.897E-03
 -21.363  0.946E-03  0.946E-03
 -21.362  0.999E-03  0.999E-03
 -21.361  0.105E-02  0.105E-02
 -21.360  0.111E-02  0.111E-02
 -21.359  0.117E-02  0.117E-02
 -21.358  0.123E-02  0.123E-02
 -21.357  0.130E-02  0.130E-02
 -21.356  0.137E-02  0.137E-02
 -21.355  0.144E-02  0.144E-02
 -21.354  0.151E-02  0.151E-02
 -21.353  0.159E-02  0.159E-02
 -21.352  0.167E-02  0.167E-02
 -21.351  0.176E-02  0.176E-02
 -21.350  0.184E-02  0.184E-02
 -21.349  0.194E-02  0.194E-02
 -21.348  0.203E-02  0.203E-02
 -21.347  0.213E-02  0.213E-02
 -21.346  0.223E-02  0.223E-02
 -21.345  0.234E-02  0.234E-02
 -21.344  0.245E-02  0.245E-02
 -21.343  0.257E-02  0.257E-02
 -21.342  0.269E-02  0.269E-02
 -21.341  0.281E-02  0.281E-02
 -21.340  0.294E-02  0.294E-02
 -21.339  0.307E-02  0.307E-02
 -21.338  0.321E-02  0.321E-02
 -21.337  0.335E-02  0.335E-02
 -21.336  0.350E-02  0.350E-02
 -21.335  0.365E-02  0.365E-02
 -21.334  0.381E-02  0.381E-02
 -21.333  0.398E-02  0.398E-02
 -21.332  0.415E-02  0.415E-02
 -21.331  0.432E-02  0.432E-02
 -21.330  0.450E-02  0.450E-02
 -21.329  0.469E-02  0.469E-02
 -21.328  0.488E-02  0.488E-02
 -21.327  0.507E-02  0.507E-02
 -21.326  0.528E-02  0.528E-02
 -21.325  0.549E-02  0.549E-02
 -21.324  0.570E-02  0.570E-02
 -21.323  0.592E-02  0.592E-02
 -21.322  0.615E-02  0.615E-02
 -21.321  0.639E-02  0.639E-02
 -21.320  0.663E-02  0.663E-02
 -21.319  0.687E-02  0.687E-02
 -21.318  0.713E-02  0.713E-02
 -21.317  0.739E-02  0.739E-02
 -21.316  0.765E-02  0.765E-02
 -21.315  0.793E-02  0.793E-02
 -21.314  0.821E-02  0.821E-02
 -21.313  0.849E-02  0.849E-02
 -21.312  0.879E-02  0.879E-02
 -21.311  0.909E-02  0.909E-02
 -21.310  0.939E-02  0.939E-02
 -21.309  0.971E-02  0.971E-02
 -21.308  0.100E-01  0.100E-01
 -21.307  0.104E-01  0.104E-01
 -21.306  0.107E-01  0.107E-01
 -21.305  0.110E-01  0.110E-01
 -21.304  0.114E-01  0.114E-01
 -21.303  0.117E-01  0.117E-01
 -21.302  0.121E-01  0.121E-01
 -21.301  0.125E-01  0.125E-01
 -21.300  0.128E-01  0.128E-01
 -21.299  0.132E-01  0.132E-01
 -21.298  0.136E-01  0.136E-01
 -21.297  0.140E-01  0.140E-01
 -21.296  0.144E-01  0.144E-01
 -21.295  0.148E-01  0.148E-01
 -21.294  0.152E-01  0.152E-01
 -21.293  0.156E-01  0.156E-01
 -21.292  0.161E-01  0.161E-01
 -21.291  0.165E-01  0.165E-01
 -21.290  0.169E-01  0.169E-01
 -21.289  0.174E-01  0.174E-01
 -21.288  0.178E-01  0.178E-01
 -21.287  0.183E-01  0.183E-01
 -21.286  0.187E-01  0.187E-01
 -21.285  0.192E-01  0.192E-01
 -21.284  0.197E-01  0.197E-01
 -21.283  0.201E-01  0.201E-01
 -21.282  0.206E-01  0.206E-01
 -21.281  0.211E-01  0.211E-01
 -21.280  0.216E-01  0.216E-01
 -21.279  0.221E-01  0.221E-01
 -21.278  0.226E-01  0.226E-01
 -21.277  0.231E-01  0.231E-01
 -21.276  0.236E-01  0.236E-01
 -21.275  0.241E-01  0.241E-01
 -21.274  0.246E-01  0.246E-01
 -21.273  0.251E-01  0.251E-01
 -21.272  0.257E-01  0.257E-01
 -21.271  0.262E-01  0.262E-01
 -21.270  0.267E-01  0.267E-01
 -21.269  0.273E-01  0.273E-01
 -21.268  0.278E-01  0.278E-01
 -21.267  0.283E-01  0.283E-01
 -21.266  0.289E-01  0.289E-01
 -21.265  0.294E-01  0.294E-01
 -21.264  0.300E-01  0.300E-01
 -21.263  0.305E-01  0.305E-01
 -21.262  0.311E-01  0.311E-01
 -21.261  0.316E-01  0.316E-01
 -21.260  0.322E-01  0.322E-01
 -21.259  0.328E-01  0.328E-01
 -21.258  0.333E-01  0.333E-01
 -21.257  0.339E-01  0.339E-01
 -21.256  0.345E-01  0.345E-01
 -21.255  0.350E-01  0.350E-01
 -21.254  0.356E-01  0.356E-01
 -21.253  0.362E-01  0.362E-01
 -21.252  0.368E-01  0.368E-01
 -21.251  0.373E-01  0.373E-01
 -21.250  0.379E-01  0.379E-01
 -21.249  0.385E-01  0.385E-01
 -21.248  0.391E-01  0.391E-01
 -21.247  0.397E-01  0.397E-01
 -21.246  0.402E-01  0.402E-01
 -21.245  0.408E-01  0.408E-01
 -21.244  0.414E-01  0.414E-01
 -21.243  0.420E-01  0.420E-01
 -21.242  0.426E-01  0.426E-01
 -21.241  0.432E-01  0.432E-01
 -21.240  0.438E-01  0.438E-01
 -21.239  0.444E-01  0.444E-01
 -21.238  0.450E-01  0.450E-01
 -21.237  0.456E-01  0.456E-01
 -21.236  0.462E-01  0.462E-01
 -21.235  0.468E-01  0.468E-01
 -21.234  0.474E-01  0.474E-01
 -21.233  0.480E-01  0.480E-01
 -21.232  0.486E-01  0.486E-01
 -21.231  0.492E-01  0.492E-01
 -21.230  0.498E-01  0.498E-01
 -21.229  0.504E-01  0.504E-01
 -21.228  0.510E-01  0.510E-01
 -21.227  0.517E-01  0.517E-01
 -21.226  0.523E-01  0.523E-01
 -21.225  0.529E-01  0.529E-01
 -21.224  0.535E-01  0.535E-01
 -21.223  0.541E-01  0.541E-01
 -21.222  0.548E-01  0.548E-01
 -21.221  0.554E-01  0.554E-01
 -21.220  0.560E-01  0.560E-01
 -21.219  0.567E-01  0.567E-01
 -21.218  0.573E-01  0.573E-01
 -21.217  0.579E-01  0.579E-01
 -21.216  0.586E-01  0.586E-01
 -21.215  0.592E-01  0.592E-01
 -21.214  0.598E-01  0.598E-01
 -21.213  0.605E-01  0.605E-01
 -21.212  0.611E-01  0.611E-01
 -21.211  0.618E-01  0.618E-01
 -21.210  0.624E-01  0.624E-01
 -21.209  0.631E-01  0.631E-01
 -21.208  0.637E-01  0.637E-01
 -21.207  0.644E-01  0.644E-01
 -21.206  0.651E-01  0.651E-01
 -21.205  0.657E-01  0.657E-01
 -21.204  0.664E-01  0.664E-01
 -21.203  0.670E-01  0.670E-01
 -21.202  0.677E-01  0.677E-01
 -21.201  0.684E-01  0.684E-01
 -21.200  0.690E-01  0.690E-01
 -21.199  0.697E-01  0.697E-01
 -21.198  0.703E-01  0.703E-01
 -21.197  0.710E-01  0.710E-01
 -21.196  0.717E-01  0.717E-01
 -21.195  0.723E-01  0.723E-01
 -21.194  0.730E-01  0.730E-01
 -21.193  0.737E-01  0.737E-01
 -21.192  0.743E-01  0.743E-01
 -21.191  0.750E-01  0.750E-01
 -21.190  0.756E-01  0.756E-01
 -21.189  0.763E-01  0.763E-01
 -21.188  0.770E-01  0.770E-01
 -21.187  0.776E-01  0.776E-01
 -21.186  0.782E-01  0.782E-01
 -21.185  0.789E-01  0.789E-01
 -21.184  0.795E-01  0.795E-01
 -21.183  0.802E-01  0.802E-01
 -21.182  0.808E-01  0.808E-01
 -21.181  0.814E-01  0.814E-01
 -21.180  0.820E-01  0.820E-01
 -21.179  0.827E-01  0.827E-01
 -21.178  0.833E-01  0.833E-01
 -21.177  0.839E-01  0.839E-01
 -21.176  0.845E-01  0.845E-01
 -21.175  0.850E-01  0.850E-01
 -21.174  0.856E-01  0.856E-01
 -21.173  0.862E-01  0.862E-01
 -21.172  0.868E-01  0.868E-01
 -21.171  0.873E-01  0.873E-01
 -21.170  0.878E-01  0.878E-01
 -21.169  0.884E-01  0.884E-01
 -21.168  0.889E-01  0.889E-01
 -21.167  0.894E-01  0.894E-01
 -21.166  0.899E-01  0.899E-01
 -21.165  0.904E-01  0.904E-01
 -21.164  0.909E-01  0.909E-01
 -21.163  0.913E-01  0.913E-01
 -21.162  0.918E-01  0.918E-01
 -21.161  0.922E-01  0.922E-01
 -21.160  0.926E-01  0.926E-01
 -21.159  0.930E-01  0.930E-01
 -21.158  0.934E-01  0.934E-01
 -21.157  0.938E-01  0.938E-01
 -21.156  0.941E-01  0.941E-01
 -21.155  0.945E-01  0.945E-01
 -21.154  0.948E-01  0.948E-01
 -21.153  0.951E-01  0.951E-01
 -21.152  0.954E-01  0.954E-01
 -21.151  0.957E-01  0.957E-01
 -21.150  0.960E-01  0.960E-01
 -21.149  0.962E-01  0.962E-01
 -21.148  0.964E-01  0.964E-01
 -21.147  0.966E-01  0.966E-01
 -21.146  0.968E-01  0.968E-01
 -21.145  0.970E-01  0.970E-01
 -21.144  0.972E-01  0.972E-01
 -21.143  0.973E-01  0.973E-01
 -21.142  0.974E-01  0.974E-01
 -21.141  0.975E-01  0.975E-01
 -21.140  0.976E-01  0.976E-01
 -21.139  0.977E-01  0.977E-01
 -21.138  0.977E-01  0.977E-01
 -21.137  0.977E-01  0.977E-01
 -21.136  0.978E-01  0.978E-01
 -21.135  0.977E-01  0.977E-01
 -21.134  0.977E-01  0.977E-01
 -21.133  0.977E-01  0.977E-01
 -21.132  0.976E-01  0.976E-01
 -21.131  0.976E-01  0.976E-01
 -21.130  0.975E-01  0.975E-01
 -21.129  0.974E-01  0.974E-01
 -21.128  0.972E-01  0.972E-01
 -21.127  0.971E-01  0.971E-01
 -21.126  0.969E-01  0.969E-01
 -21.125  0.968E-01  0.968E-01
 -21.124  0.966E-01  0.966E-01
 -21.123  0.964E-01  0.964E-01
 -21.122  0.962E-01  0.962E-01
 -21.121  0.960E-01  0.960E-01
 -21.120  0.957E-01  0.957E-01
 -21.119  0.955E-01  0.955E-01
 -21.118  0.952E-01  0.952E-01
 -21.117  0.949E-01  0.949E-01
 -21.116  0.946E-01  0.946E-01
 -21.115  0.943E-01  0.943E-01
 -21.114  0.940E-01  0.940E-01
 -21.113  0.937E-01  0.937E-01
 -21.112  0.934E-01  0.934E-01
 -21.111  0.930E-01  0.930E-01
 -21.110  0.927E-01  0.927E-01
 -21.109  0.923E-01  0.923E-01
 -21.108  0.920E-01  0.920E-01
 -21.107  0.916E-01  0.916E-01
 -21.106  0.912E-01  0.912E-01
 -21.105  0.909E-01  0.909E-01
 -21.104  0.905E-01  0.905E-01
 -21.103  0.901E-01  0.901E-01
 -21.102  0.897E-01  0.897E-01
 -21.101  0.893E-01  0.893E-01
 -21.100  0.889E-01  0.889E-01
 -21.099  0.885E-01  0.885E-01
 -21.098  0.881E-01  0.881E-01
 -21.097  0.877E-01  0.877E-01
 -21.096  0.873E-01  0.873E-01
 -21.095  0.869E-01  0.869E-01
 -21.094  0.864E-01  0.864E-01
 -21.093  0.860E-01  0.860E-01
 -21.092  0.856E-01  0.856E-01
 -21.091  0.852E-01  0.852E-01
 -21.090  0.848E-01  0.848E-01
 -21.089  0.844E-01  0.844E-01
 -21.088  0.840E-01  0.840E-01
 -21.087  0.836E-01  0.836E-01
 -21.086  0.832E-01  0.832E-01
 -21.085  0.828E-01  0.828E-01
 -21.084  0.824E-01  0.824E-01
 -21.083  0.820E-01  0.820E-01
 -21.082  0.816E-01  0.816E-01
 -21.081  0.813E-01  0.813E-01
 -21.080  0.809E-01  0.809E-01
 -21.079  0.805E-01  0.805E-01
 -21.078  0.801E-01  0.801E-01
 -21.077  0.798E-01  0.798E-01
 -21.076  0.794E-01  0.794E-01
 -21.075  0.791E-01  0.791E-01
 -21.074  0.787E-01  0.787E-01
 -21.073  0.784E-01  0.784E-01
 -21.072  0.781E-01  0.781E-01
 -21.071  0.778E-01  0.778E-01
 -21.070  0.774E-01  0.774E-01
 -21.069  0.771E-01  0.771E-01
 -21.068  0.768E-01  0.768E-01
 -21.067  0.765E-01  0.765E-01
 -21.066  0.763E-01  0.763E-01
 -21.065  0.760E-01  0.760E-01
 -21.064  0.757E-01  0.757E-01
 -21.063  0.754E-01  0.754E-01
 -21.062  0.752E-01  0.752E-01
 -21.061  0.749E-01  0.749E-01
 -21.060  0.747E-01  0.747E-01
 -21.059  0.745E-01  0.745E-01
 -21.058  0.742E-01  0.742E-01
 -21.057  0.740E-01  0.740E-01
 -21.056  0.738E-01  0.738E-01
 -21.055  0.736E-01  0.736E-01
 -21.054  0.734E-01  0.734E-01
 -21.053  0.732E-01  0.732E-01
 -21.052  0.731E-01  0.731E-01
 -21.051  0.729E-01  0.729E-01
 -21.050  0.727E-01  0.727E-01
 -21.049  0.726E-01  0.726E-01
 -21.048  0.724E-01  0.724E-01
 -21.047  0.723E-01  0.723E-01
 -21.046  0.722E-01  0.722E-01
 -21.045  0.720E-01  0.720E-01
 -21.044  0.719E-01  0.719E-01
 -21.043  0.718E-01  0.718E-01
 -21.042  0.717E-01  0.717E-01
 -21.041  0.717E-01  0.717E-01
 -21.040  0.716E-01  0.716E-01
 -21.039  0.715E-01  0.715E-01
 -21.038  0.714E-01  0.714E-01
 -21.037  0.714E-01  0.714E-01
 -21.036  0.714E-01  0.714E-01
 -21.035  0.713E-01  0.713E-01
 -21.034  0.713E-01  0.713E-01
 -21.033  0.713E-01  0.713E-01
 -21.032  0.713E-01  0.713E-01
 -21.031  0.713E-01  0.713E-01
 -21.030  0.713E-01  0.713E-01
 -21.029  0.713E-01  0.713E-01
 -21.028  0.713E-01  0.713E-01
 -21.027  0.714E-01  0.714E-01
 -21.026  0.714E-01  0.714E-01
 -21.025  0.715E-01  0.715E-01
 -21.024  0.715E-01  0.715E-01
 -21.023  0.716E-01  0.716E-01
 -21.022  0.717E-01  0.717E-01
 -21.021  0.718E-01  0.718E-01
 -21.020  0.719E-01  0.719E-01
 -21.019  0.720E-01  0.720E-01
 -21.018  0.721E-01  0.721E-01
 -21.017  0.722E-01  0.722E-01
 -21.016  0.724E-01  0.724E-01
 -21.015  0.725E-01  0.725E-01
 -21.014  0.727E-01  0.727E-01
 -21.013  0.728E-01  0.728E-01
 -21.012  0.730E-01  0.730E-01
 -21.011  0.732E-01  0.732E-01
 -21.010  0.734E-01  0.734E-01
 -21.009  0.736E-01  0.736E-01
 -21.008  0.738E-01  0.738E-01
 -21.007  0.741E-01  0.741E-01
 -21.006  0.743E-01  0.743E-01
 -21.005  0.746E-01  0.746E-01
 -21.004  0.748E-01  0.748E-01
 -21.003  0.751E-01  0.751E-01
 -21.002  0.754E-01  0.754E-01
 -21.001  0.756E-01  0.756E-01
 -21.000  0.759E-01  0.759E-01
 -20.999  0.762E-01  0.762E-01
 -20.998  0.766E-01  0.766E-01
 -20.997  0.769E-01  0.769E-01
 -20.996  0.772E-01  0.772E-01
 -20.995  0.776E-01  0.776E-01
 -20.994  0.779E-01  0.779E-01
 -20.993  0.783E-01  0.783E-01
 -20.992  0.787E-01  0.787E-01
 -20.991  0.791E-01  0.791E-01
 -20.990  0.795E-01  0.795E-01
 -20.989  0.799E-01  0.799E-01
 -20.988  0.803E-01  0.803E-01
 -20.987  0.807E-01  0.807E-01
 -20.986  0.811E-01  0.811E-01
 -20.985  0.815E-01  0.815E-01
 -20.984  0.820E-01  0.820E-01
 -20.983  0.824E-01  0.824E-01
 -20.982  0.829E-01  0.829E-01
 -20.981  0.834E-01  0.834E-01
 -20.980  0.838E-01  0.838E-01
 -20.979  0.843E-01  0.843E-01
 -20.978  0.848E-01  0.848E-01