# E (eV)   ldos(E)   pdos(E)   
 -21.943  0.320E-03  0.320E-03
 -21.942  0.349E-03  0.349E-03
 -21.941  0.381E-03  0.381E-03
 -21.940  0.416E-03  0.416E-03
 -21.939  0.454E-03  0.454E-03
 -21.938  0.494E-03  0.494E-03
 -21.937  0.539E-03  0.539E-03
 -21.936  0.587E-03  0.587E-03
 -21.935  0.639E-03  0.639E-03
 -21.934  0.695E-03  0.695E-03
 -21.933  0.757E-03  0.757E-03
 -21.932  0.823E-03  0.823E-03
 -21.931  0.894E-03  0.894E-03
 -21.930  0.971E-03  0.971E-03
 -21.929  0.105E-02  0.105E-02
 -21.928  0.114E-02  0.114E-02
 -21.927  0.124E-02  0.124E-02
 -21.926  0.135E-02  0.135E-02
 -21.925  0.146E-02  0.146E-02
 -21.924  0.158E-02  0.158E-02
 -21.923  0.171E-02  0.171E-02
 -21.922  0.186E-02  0.186E-02
 -21.921  0.201E-02  0.201E-02
 -21.920  0.217E-02  0.217E-02
 -21.919  0.235E-02  0.235E-02
 -21.918  0.254E-02  0.254E-02
 -21.917  0.274E-02  0.274E-02
 -21.916  0.296E-02  0.296E-02
 -21.915  0.320E-02  0.320E-02
 -21.914  0.345E-02  0.345E-02
 -21.913  0.372E-02  0.372E-02
 -21.912  0.401E-02  0.401E-02
 -21.911  0.432E-02  0.432E-02
 -21.910  0.465E-02  0.465E-02
 -21.909  0.501E-02  0.501E-02
 -21.908  0.539E-02  0.539E-02
 -21.907  0.580E-02  0.580E-02
 -21.906  0.624E-02  0.624E-02
 -21.905  0.670E-02  0.670E-02
 -21.904  0.720E-02  0.720E-02
 -21.903  0.773E-02  0.773E-02
 -21.902  0.830E-02  0.830E-02
 -21.901  0.890E-02  0.890E-02
 -21.900  0.955E-02  0.955E-02
 -21.899  0.102E-01  0.102E-01
 -21.898  0.110E-01  0.110E-01
 -21.897  0.117E-01  0.117E-01
 -21.896  0.126E-01  0.126E-01
 -21.895  0.135E-01  0.135E-01
 -21.894  0.144E-01  0.144E-01
 -21.893  0.154E-01  0.154E-01
 -21.892  0.164E-01  0.164E-01
 -21.891  0.176E-01  0.176E-01
 -21.890  0.188E-01  0.188E-01
 -21.889  0.200E-01  0.200E-01
 -21.888  0.214E-01  0.214E-01
 -21.887  0.228E-01  0.228E-01
 -21.886  0.243E-01  0.243E-01
 -21.885  0.259E-01  0.259E-01
 -21.884  0.276E-01  0.276E-01
 -21.883  0.293E-01  0.293E-01
 -21.882  0.312E-01  0.312E-01
 -21.881  0.332E-01  0.332E-01
 -21.880  0.353E-01  0.353E-01
 -21.879  0.375E-01  0.375E-01
 -21.878  0.399E-01  0.399E-01
 -21.877  0.423E-01  0.423E-01
 -21.876  0.449E-01  0.449E-01
 -21.875  0.477E-01  0.477E-01
 -21.874  0.505E-01  0.505E-01
 -21.873  0.536E-01  0.536E-01
 -21.872  0.567E-01  0.567E-01
 -21.871  0.601E-01  0.601E-01
 -21.870  0.636E-01  0.636E-01
 -21.869  0.673E-01  0.673E-01
 -21.868  0.712E-01  0.712E-01
 -21.867  0.753E-01  0.753E-01
 -21.866  0.796E-01  0.796E-01
 -21.865  0.840E-01  0.840E-01
 -21.864  0.887E-01  0.887E-01
 -21.863  0.936E-01  0.936E-01
 -21.862  0.988E-01  0.988E-01
 -21.861  0.104E+00  0.104E+00
 -21.860  0.110E+00  0.110E+00
 -21.859  0.116E+00  0.116E+00
 -21.858  0.122E+00  0.122E+00
 -21.857  0.128E+00  0.128E+00
 -21.856  0.135E+00  0.135E+00
 -21.855  0.142E+00  0.142E+00
 -21.854  0.149E+00  0.149E+00
 -21.853  0.157E+00  0.157E+00
 -21.852  0.165E+00  0.165E+00
 -21.851  0.173E+00  0.173E+00
 -21.850  0.182E+00  0.182E+00
 -21.849  0.190E+00  0.190E+00
 -21.848  0.200E+00  0.200E+00
 -21.847  0.209E+00  0.209E+00
 -21.846  0.219E+00  0.219E+00
 -21.845  0.230E+00  0.230E+00
 -21.844  0.240E+00  0.240E+00
 -21.843  0.251E+00  0.251E+00
 -21.842  0.263E+00  0.263E+00
 -21.841  0.275E+00  0.275E+00
 -21.840  0.287E+00  0.287E+00
 -21.839  0.300E+00  0.300E+00
 -21.838  0.313E+00  0.313E+00
 -21.837  0.327E+00  0.327E+00
 -21.836  0.341E+00  0.341E+00
 -21.835  0.356E+00  0.356E+00
 -21.834  0.371E+00  0.371E+00
 -21.833  0.386E+00  0.386E+00
 -21.832  0.402E+00  0.402E+00
 -21.831  0.419E+00  0.419E+00
 -21.830  0.436E+00  0.436E+00
 -21.829  0.453E+00  0.453E+00
 -21.828  0.471E+00  0.471E+00
 -21.827  0.489E+00  0.489E+00
 -21.826  0.508E+00  0.508E+00
 -21.825  0.528E+00  0.528E+00
 -21.824  0.548E+00  0.548E+00
 -21.823  0.568E+00  0.568E+00
 -21.822  0.589E+00  0.589E+00
 -21.821  0.610E+00  0.610E+00
 -21.820  0.632E+00  0.632E+00
 -21.819  0.655E+00  0.655E+00
 -21.818  0.678E+00  0.678E+00
 -21.817  0.701E+00  0.701E+00
 -21.816  0.725E+00  0.725E+00
 -21.815  0.750E+00  0.750E+00
 -21.814  0.775E+00  0.775E+00
 -21.813  0.800E+00  0.800E+00
 -21.812  0.826E+00  0.826E+00
 -21.811  0.853E+00  0.853E+00
 -21.810  0.879E+00  0.879E+00
 -21.809  0.907E+00  0.907E+00
 -21.808  0.935E+00  0.935E+00
 -21.807  0.963E+00  0.963E+00
 -21.806  0.991E+00  0.991E+00
 -21.805  0.102E+01  0.102E+01
 -21.804  0.105E+01  0.105E+01
 -21.803  0.108E+01  0.108E+01
 -21.802  0.111E+01  0.111E+01
 -21.801  0.114E+01  0.114E+01
 -21.800  0.117E+01  0.117E+01
 -21.799  0.120E+01  0.120E+01
 -21.798  0.123E+01  0.123E+01
 -21.797  0.127E+01  0.127E+01
 -21.796  0.130E+01  0.130E+01
 -21.795  0.133E+01  0.133E+01
 -21.794  0.136E+01  0.136E+01
 -21.793  0.139E+01  0.139E+01
 -21.792  0.143E+01  0.143E+01
 -21.791  0.146E+01  0.146E+01
 -21.790  0.149E+01  0.149E+01
 -21.789  0.153E+01  0.153E+01
 -21.788  0.156E+01  0.156E+01
 -21.787  0.159E+01  0.159E+01
 -21.786  0.163E+01  0.163E+01
 -21.785  0.166E+01  0.166E+01
 -21.784  0.169E+01  0.169E+01
 -21.783  0.173E+01  0.173E+01
 -21.782  0.176E+01  0.176E+01
 -21.781  0.179E+01  0.179E+01
 -21.780  0.182E+01  0.182E+01
 -21.779  0.186E+01  0.186E+01
 -21.778  0.189E+01  0.189E+01
 -21.777  0.192E+01  0.192E+01
 -21.776  0.195E+01  0.195E+01
 -21.775  0.198E+01  0.198E+01
 -21.774  0.201E+01  0.201E+01
 -21.773  0.205E+01  0.205E+01
 -21.772  0.208E+01  0.208E+01
 -21.771  0.211E+01  0.211E+01
 -21.770  0.213E+01  0.213E+01
 -21.769  0.216E+01  0.216E+01
 -21.768  0.219E+01  0.219E+01
 -21.767  0.222E+01  0.222E+01
 -21.766  0.225E+01  0.225E+01
 -21.765  0.227E+01  0.227E+01
 -21.764  0.230E+01  0.230E+01
 -21.763  0.232E+01  0.232E+01
 -21.762  0.235E+01  0.235E+01
 -21.761  0.237E+01  0.237E+01
 -21.760  0.239E+01  0.239E+01
 -21.759  0.241E+01  0.241E+01
 -21.758  0.243E+01  0.243E+01
 -21.757  0.245E+01  0.245E+01
 -21.756  0.247E+01  0.247E+01
 -21.755  0.249E+01  0.249E+01
 -21.754  0.251E+01  0.251E+01
 -21.753  0.252E+01  0.252E+01
 -21.752  0.254E+01  0.254E+01
 -21.751  0.255E+01  0.255E+01
 -21.750  0.257E+01  0.257E+01
 -21.749  0.258E+01  0.258E+01
 -21.748  0.259E+01  0.259E+01
 -21.747  0.260E+01  0.260E+01
 -21.746  0.261E+01  0.261E+01
 -21.745  0.261E+01  0.261E+01
 -21.744  0.262E+01  0.262E+01
 -21.743  0.263E+01  0.263E+01
 -21.742  0.263E+01  0.263E+01
 -21.741  0.263E+01  0.263E+01
 -21.740  0.264E+01  0.264E+01
 -21.739  0.264E+01  0.264E+01
 -21.738  0.264E+01  0.264E+01
 -21.737  0.264E+01  0.264E+01
 -21.736  0.263E+01  0.263E+01
 -21.735  0.263E+01  0.263E+01
 -21.734  0.262E+01  0.262E+01
 -21.733  0.262E+01  0.262E+01
 -21.732  0.261E+01  0.261E+01
 -21.731  0.260E+01  0.260E+01
 -21.730  0.259E+01  0.259E+01
 -21.729  0.258E+01  0.258E+01
 -21.728  0.257E+01  0.257E+01
 -21.727  0.256E+01  0.256E+01
 -21.726  0.255E+01  0.255E+01
 -21.725  0.253E+01  0.253E+01
 -21.724  0.252E+01  0.252E+01
 -21.723  0.250E+01  0.250E+01
 -21.722  0.248E+01  0.248E+01
 -21.721  0.246E+01  0.246E+01
 -21.720  0.244E+01  0.244E+01
 -21.719  0.242E+01  0.242E+01
 -21.718  0.240E+01  0.240E+01
 -21.717  0.238E+01  0.238E+01
 -21.716  0.236E+01  0.236E+01
 -21.715  0.234E+01  0.234E+01
 -21.714  0.231E+01  0.231E+01
 -21.713  0.229E+01  0.229E+01
 -21.712  0.226E+01  0.226E+01
 -21.711  0.223E+01  0.223E+01
 -21.710  0.221E+01  0.221E+01
 -21.709  0.218E+01  0.218E+01
 -21.708  0.215E+01  0.215E+01
 -21.707  0.212E+01  0.212E+01
 -21.706  0.209E+01  0.209E+01
 -21.705  0.206E+01  0.206E+01
 -21.704  0.203E+01  0.203E+01
 -21.703  0.200E+01  0.200E+01
 -21.702  0.197E+01  0.197E+01
 -21.701  0.194E+01  0.194E+01
 -21.700  0.191E+01  0.191E+01
 -21.699  0.188E+01  0.188E+01
 -21.698  0.184E+01  0.184E+01
 -21.697  0.181E+01  0.181E+01
 -21.696  0.178E+01  0.178E+01
 -21.695  0.174E+01  0.174E+01
 -21.694  0.171E+01  0.171E+01
 -21.693  0.168E+01  0.168E+01
 -21.692  0.165E+01  0.165E+01
 -21.691  0.161E+01  0.161E+01
 -21.690  0.158E+01  0.158E+01
 -21.689  0.155E+01  0.155E+01
 -21.688  0.151E+01  0.151E+01
 -21.687  0.148E+01  0.148E+01
 -21.686  0.145E+01  0.145E+01
 -21.685  0.141E+01  0.141E+01
 -21.684  0.138E+01  0.138E+01
 -21.683  0.135E+01  0.135E+01
 -21.682  0.132E+01  0.132E+01
 -21.681  0.128E+01  0.128E+01
 -21.680  0.125E+01  0.125E+01
 -21.679  0.122E+01  0.122E+01
 -21.678  0.119E+01  0.119E+01
 -21.677  0.116E+01  0.116E+01
 -21.676  0.113E+01  0.113E+01
 -21.675  0.110E+01  0.110E+01
 -21.674  0.107E+01  0.107E+01
 -21.673  0.104E+01  0.104E+01
 -21.672  0.101E+01  0.101E+01
 -21.671  0.979E+00  0.979E+00
 -21.670  0.951E+00  0.951E+00
 -21.669  0.923E+00  0.923E+00
 -21.668  0.895E+00  0.895E+00
 -21.667  0.868E+00  0.868E+00
 -21.666  0.841E+00  0.841E+00
 -21.665  0.815E+00  0.815E+00
 -21.664  0.789E+00  0.789E+00
 -21.663  0.764E+00  0.764E+00
 -21.662  0.739E+00  0.739E+00
 -21.661  0.715E+00  0.715E+00
 -21.660  0.691E+00  0.691E+00
 -21.659  0.668E+00  0.668E+00
 -21.658  0.645E+00  0.645E+00
 -21.657  0.623E+00  0.623E+00
 -21.656  0.601E+00  0.601E+00
 -21.655  0.580E+00  0.580E+00
 -21.654  0.559E+00  0.559E+00
 -21.653  0.539E+00  0.539E+00
 -21.652  0.519E+00  0.519E+00
 -21.651  0.500E+00  0.500E+00
 -21.650  0.481E+00  0.481E+00
 -21.649  0.463E+00  0.463E+00
 -21.648  0.445E+00  0.445E+00
 -21.647  0.428E+00  0.428E+00
 -21.646  0.412E+00  0.412E+00
 -21.645  0.395E+00  0.395E+00
 -21.644  0.380E+00  0.380E+00
 -21.643  0.364E+00  0.364E+00
 -21.642  0.349E+00  0.349E+00
 -21.641  0.335E+00  0.335E+00
 -21.640  0.321E+00  0.321E+00
 -21.639  0.308E+00  0.308E+00
 -21.638  0.295E+00  0.295E+00
 -21.637  0.282E+00  0.282E+00
 -21.636  0.270E+00  0.270E+00
 -21.635  0.258E+00  0.258E+00
 -21.634  0.247E+00  0.247E+00
 -21.633  0.236E+00  0.236E+00
 -21.632  0.225E+00  0.225E+00
 -21.631  0.215E+00  0.215E+00
 -21.630  0.205E+00  0.205E+00
 -21.629  0.196E+00  0.196E+00
 -21.628  0.187E+00  0.187E+00
 -21.627  0.178E+00  0.178E+00
 -21.626  0.169E+00  0.169E+00
 -21.625  0.161E+00  0.161E+00
 -21.624  0.154E+00  0.154E+00
 -21.623  0.146E+00  0.146E+00
 -21.622  0.139E+00  0.139E+00
 -21.621  0.132E+00  0.132E+00
 -21.620  0.125E+00  0.125E+00
 -21.619  0.119E+00  0.119E+00
 -21.618  0.113E+00  0.113E+00
 -21.617  0.107E+00  0.107E+00
 -21.616  0.102E+00  0.102E+00
 -21.615  0.966E-01  0.966E-01
 -21.614  0.915E-01  0.915E-01
 -21.613  0.867E-01  0.867E-01
 -21.612  0.821E-01  0.821E-01
 -21.611  0.777E-01  0.777E-01
 -21.610  0.735E-01  0.735E-01
 -21.609  0.695E-01  0.695E-01
 -21.608  0.657E-01  0.657E-01
 -21.607  0.621E-01  0.621E-01
 -21.606  0.586E-01  0.586E-01
 -21.605  0.554E-01  0.554E-01
 -21.604  0.522E-01  0.522E-01
 -21.603  0.493E-01  0.493E-01
 -21.602  0.465E-01  0.465E-01
 -21.601  0.438E-01  0.438E-01
 -21.600  0.412E-01  0.412E-01
 -21.599  0.388E-01  0.388E-01
 -21.598  0.366E-01  0.366E-01
 -21.597  0.344E-01  0.344E-01
 -21.596  0.323E-01  0.323E-01
 -21.595  0.304E-01  0.304E-01
 -21.594  0.286E-01  0.286E-01
 -21.593  0.268E-01  0.268E-01
 -21.592  0.252E-01  0.252E-01
 -21.591  0.236E-01  0.236E-01
 -21.590  0.222E-01  0.222E-01
 -21.589  0.208E-01  0.208E-01
 -21.588  0.195E-01  0.195E-01
 -21.587  0.182E-01  0.182E-01
 -21.586  0.171E-01  0.171E-01
 -21.585  0.160E-01  0.160E-01
 -21.584  0.150E-01  0.150E-01
 -21.583  0.140E-01  0.140E-01
 -21.582  0.131E-01  0.131E-01
 -21.581  0.122E-01  0.122E-01
 -21.580  0.114E-01  0.114E-01
 -21.579  0.106E-01  0.106E-01
 -21.578  0.994E-02  0.994E-02
 -21.577  0.927E-02  0.927E-02
 -21.576  0.864E-02  0.864E-02
 -21.575  0.805E-02  0.805E-02
 -21.574  0.750E-02  0.750E-02
 -21.573  0.698E-02  0.698E-02
 -21.572  0.650E-02  0.650E-02
 -21.571  0.605E-02  0.605E-02
 -21.570  0.562E-02  0.562E-02
 -21.569  0.523E-02  0.523E-02
 -21.568  0.485E-02  0.485E-02
 -21.567  0.451E-02  0.451E-02
 -21.566  0.419E-02  0.419E-02
 -21.565  0.388E-02  0.388E-02
 -21.564  0.360E-02  0.360E-02
 -21.563  0.334E-02  0.334E-02
 -21.562  0.309E-02  0.309E-02
 -21.561  0.287E-02  0.287E-02
 -21.560  0.265E-02  0.265E-02
 -21.559  0.246E-02  0.246E-02
 -21.558  0.227E-02  0.227E-02
 -21.557  0.210E-02  0.210E-02
 -21.556  0.194E-02  0.194E-02
 -21.555  0.179E-02  0.179E-02
 -21.554  0.166E-02  0.166E-02
 -21.553  0.153E-02  0.153E-02
 -21.552  0.141E-02  0.141E-02
 -21.551  0.130E-02  0.130E-02
 -21.550  0.120E-02  0.120E-02
 -21.549  0.111E-02  0.111E-02
 -21.548  0.102E-02  0.102E-02
 -21.547  0.937E-03  0.937E-03
 -21.546  0.863E-03  0.863E-03
 -21.545  0.794E-03  0.794E-03
 -21.544  0.730E-03  0.730E-03
 -21.543  0.671E-03  0.671E-03
 -21.542  0.616E-03  0.616E-03
 -21.541  0.566E-03  0.566E-03
 -21.540  0.519E-03  0.519E-03
 -21.539  0.477E-03  0.477E-03
 -21.538  0.437E-03  0.437E-03
 -21.537  0.401E-03  0.401E-03
 -21.536  0.367E-03  0.367E-03
 -21.535  0.336E-03  0.336E-03
 -21.534  0.308E-03  0.308E-03
 -21.533  0.282E-03  0.282E-03
 -21.532  0.258E-03  0.258E-03
 -21.531  0.236E-03  0.236E-03
 -21.530  0.215E-03  0.215E-03
 -21.529  0.197E-03  0.197E-03
 -21.528  0.180E-03  0.180E-03
 -21.527  0.164E-03  0.164E-03
 -21.526  0.150E-03  0.150E-03
 -21.525  0.136E-03  0.136E-03
 -21.524  0.124E-03  0.124E-03
 -21.523  0.113E-03  0.113E-03
 -21.522  0.103E-03  0.103E-03
 -21.521  0.940E-04  0.940E-04
 -21.520  0.855E-04  0.855E-04
 -21.519  0.778E-04  0.778E-04
 -21.518  0.707E-04  0.707E-04
 -21.517  0.643E-04  0.643E-04
 -21.516  0.584E-04  0.584E-04
 -21.515  0.530E-04  0.530E-04
 -21.514  0.481E-04  0.481E-04
 -21.513  0.437E-04  0.437E-04
 -21.512  0.396E-04  0.396E-04
 -21.511  0.359E-04  0.359E-04
 -21.510  0.325E-04  0.325E-04
 -21.509  0.295E-04  0.295E-04
 -21.508  0.267E-04  0.267E-04
 -21.507  0.241E-04  0.241E-04
 -21.506  0.218E-04  0.218E-04
 -21.505  0.198E-04  0.198E-04
 -21.504  0.179E-04  0.179E-04
 -21.503  0.161E-04  0.161E-04
 -21.502  0.146E-04  0.146E-04
 -21.501  0.132E-04  0.132E-04
 -21.500  0.119E-04  0.119E-04
 -21.499  0.107E-04  0.107E-04
 -21.498  0.967E-05  0.967E-05
 -21.497  0.872E-05  0.872E-05
 -21.496  0.786E-05  0.786E-05
 -21.495  0.709E-05  0.709E-05
 -21.494  0.639E-05  0.639E-05
 -21.493  0.576E-05  0.576E-05
 -21.492  0.520E-05  0.520E-05
 -21.491  0.469E-05  0.469E-05
 -21.490  0.423E-05  0.423E-05
 -21.489  0.382E-05  0.382E-05
 -21.488  0.345E-05  0.345E-05
 -21.487  0.312E-05  0.312E-05
 -21.486  0.283E-05  0.283E-05
 -21.485  0.257E-05  0.257E-05
 -21.484  0.234E-05  0.234E-05
 -21.483  0.214E-05  0.214E-05
 -21.482  0.196E-05  0.196E-05
 -21.481  0.180E-05  0.180E-05
 -21.480  0.167E-05  0.167E-05
 -21.479  0.155E-05  0.155E-05
 -21.478  0.145E-05  0.145E-05
 -21.477  0.137E-05  0.137E-05
 -21.476  0.131E-05  0.131E-05
 -21.475  0.126E-05  0.126E-05
 -21.474  0.122E-05  0.122E-05
 -21.473  0.120E-05  0.120E-05
 -21.472  0.119E-05  0.119E-05
 -21.471  0.120E-05  0.120E-05
 -21.470  0.122E-05  0.122E-05
 -21.469  0.125E-05  0.125E-05
 -21.468  0.129E-05  0.129E-05
 -21.467  0.135E-05  0.135E-05
 -21.466  0.142E-05  0.142E-05
 -21.465  0.151E-05  0.151E-05
 -21.464  0.161E-05  0.161E-05
 -21.463  0.172E-05  0.172E-05
 -21.462  0.185E-05  0.185E-05
 -21.461  0.200E-05  0.200E-05
 -21.460  0.216E-05  0.216E-05
 -21.459  0.234E-05  0.234E-05
 -21.458  0.255E-05  0.255E-05
 -21.457  0.277E-05  0.277E-05
 -21.456  0.302E-05  0.302E-05
 -21.455  0.329E-05  0.329E-05
 -21.454  0.359E-05  0.359E-05
 -21.453  0.391E-05  0.391E-05
 -21.452  0.427E-05  0.427E-05
 -21.451  0.466E-05  0.466E-05
 -21.450  0.509E-05  0.509E-05
 -21.449  0.556E-05  0.556E-05
 -21.448  0.607E-05  0.607E-05
 -21.447  0.662E-05  0.662E-05
 -21.446  0.722E-05  0.722E-05
 -21.445  0.787E-05  0.787E-05
 -21.444  0.858E-05  0.858E-05
 -21.443  0.936E-05  0.936E-05
 -21.442  0.102E-04  0.102E-04
 -21.441  0.111E-04  0.111E-04
 -21.440  0.121E-04  0.121E-04
 -21.439  0.132E-04  0.132E-04
 -21.438  0.143E-04  0.143E-04
 -21.437  0.156E-04  0.156E-04
 -21.436  0.169E-04  0.169E-04
 -21.435  0.184E-04  0.184E-04
 -21.434  0.200E-04  0.200E-04
 -21.433  0.217E-04  0.217E-04
 -21.432  0.235E-04  0.235E-04
 -21.431  0.255E-04  0.255E-04
 -21.430  0.277E-04  0.277E-04
 -21.429  0.300E-04  0.300E-04
 -21.428  0.325E-04  0.325E-04
 -21.427  0.352E-04  0.352E-04
 -21.426  0.380E-04  0.380E-04
 -21.425  0.412E-04  0.412E-04
 -21.424  0.445E-04  0.445E-04
 -21.423  0.481E-04  0.481E-04
 -21.422  0.520E-04  0.520E-04
 -21.421  0.562E-04  0.562E-04
 -21.420  0.606E-04  0.606E-04
 -21.419  0.654E-04  0.654E-04
 -21.418  0.706E-04  0.706E-04
 -21.417  0.761E-04  0.761E-04
 -21.416  0.820E-04  0.820E-04
 -21.415  0.884E-04  0.884E-04
 -21.414  0.951E-04  0.951E-04
 -21.413  0.102E-03  0.102E-03
 -21.412  0.110E-03  0.110E-03
 -21.411  0.118E-03  0.118E-03
 -21.410  0.127E-03  0.127E-03
 -21.409  0.137E-03  0.137E-03
 -21.408  0.147E-03  0.147E-03
 -21.407  0.158E-03  0.158E-03
 -21.406  0.169E-03  0.169E-03
 -21.405  0.182E-03  0.182E-03
 -21.404  0.195E-03  0.195E-03
 -21.403  0.209E-03  0.209E-03
 -21.402  0.224E-03  0.224E-03
 -21.401  0.239E-03  0.239E-03
 -21.400  0.256E-03  0.256E-03
 -21.399  0.274E-03  0.274E-03
 -21.398  0.293E-03  0.293E-03
 -21.397  0.313E-03  0.313E-03
 -21.396  0.335E-03  0.335E-03
 -21.395  0.358E-03  0.358E-03
 -21.394  0.382E-03  0.382E-03
 -21.393  0.408E-03  0.408E-03
 -21.392  0.435E-03  0.435E-03
 -21.391  0.464E-03  0.464E-03
 -21.390  0.494E-03  0.494E-03
 -21.389  0.526E-03  0.526E-03
 -21.388  0.560E-03  0.560E-03
 -21.387  0.597E-03  0.597E-03
 -21.386  0.635E-03  0.635E-03
 -21.385  0.675E-03  0.675E-03
 -21.384  0.718E-03  0.718E-03
 -21.383  0.762E-03  0.762E-03
 -21.382  0.810E-03  0.810E-03
 -21.381  0.860E-03  0.860E-03
 -21.380  0.912E-03  0.912E-03
 -21.379  0.968E-03  0.968E-03
 -21.378  0.103E-02  0.103E-02
 -21.377  0.109E-02  0.109E-02
 -21.376  0.115E-02  0.115E-02
 -21.375  0.122E-02  0.122E-02
 -21.374  0.129E-02  0.129E-02
 -21.373  0.137E-02  0.137E-02
 -21.372  0.145E-02  0.145E-02
 -21.371  0.153E-02  0.153E-02
 -21.370  0.161E-02  0.161E-02
 -21.369  0.171E-02  0.171E-02
 -21.368  0.180E-02  0.180E-02
 -21.367  0.190E-02  0.190E-02
 -21.366  0.200E-02  0.200E-02
 -21.365  0.211E-02  0.211E-02
 -21.364  0.223E-02  0.223E-02
 -21.363  0.235E-02  0.235E-02
 -21.362  0.247E-02  0.247E-02
 -21.361  0.260E-02  0.260E-02
 -21.360  0.274E-02  0.274E-02
 -21.359  0.288E-02  0.288E-02
 -21.358  0.303E-02  0.303E-02
 -21.357  0.318E-02  0.318E-02
 -21.356  0.334E-02  0.334E-02
 -21.355  0.351E-02  0.351E-02
 -21.354  0.368E-02  0.368E-02
 -21.353  0.386E-02  0.386E-02
 -21.352  0.405E-02  0.405E-02
 -21.351  0.425E-02  0.425E-02
 -21.350  0.445E-02  0.445E-02
 -21.349  0.466E-02  0.466E-02
 -21.348  0.488E-02  0.488E-02
 -21.347  0.510E-02  0.510E-02
 -21.346  0.534E-02  0.534E-02
 -21.345  0.558E-02  0.558E-02
 -21.344  0.583E-02  0.583E-02
 -21.343  0.609E-02  0.609E-02
 -21.342  0.636E-02  0.636E-02
 -21.341  0.664E-02  0.664E-02
 -21.340  0.693E-02  0.693E-02
 -21.339  0.723E-02  0.723E-02
 -21.338  0.753E-02  0.753E-02
 -21.337  0.785E-02  0.785E-02
 -21.336  0.818E-02  0.818E-02
 -21.335  0.851E-02  0.851E-02
 -21.334  0.886E-02  0.886E-02
 -21.333  0.922E-02  0.922E-02
 -21.332  0.958E-02  0.958E-02
 -21.331  0.996E-02  0.996E-02
 -21.330  0.104E-01  0.104E-01
 -21.329  0.108E-01  0.108E-01
 -21.328  0.112E-01  0.112E-01
 -21.327  0.116E-01  0.116E-01
 -21.326  0.120E-01  0.120E-01
 -21.325  0.125E-01  0.125E-01
 -21.324  0.129E-01  0.129E-01
 -21.323  0.134E-01  0.134E-01
 -21.322  0.138E-01  0.138E-01
 -21.321  0.143E-01  0.143E-01
 -21.320  0.148E-01  0.148E-01
 -21.319  0.153E-01  0.153E-01
 -21.318  0.159E-01  0.159E-01
 -21.317  0.164E-01  0.164E-01
 -21.316  0.169E-01  0.169E-01
 -21.315  0.175E-01  0.175E-01
 -21.314  0.181E-01  0.181E-01
 -21.313  0.186E-01  0.186E-01
 -21.312  0.192E-01  0.192E-01
 -21.311  0.198E-01  0.198E-01
 -21.310  0.204E-01  0.204E-01
 -21.309  0.210E-01  0.210E-01
 -21.308  0.216E-01  0.216E-01
 -21.307  0.223E-01  0.223E-01
 -21.306  0.229E-01  0.229E-01
 -21.305  0.236E-01  0.236E-01
 -21.304  0.242E-01  0.242E-01
 -21.303  0.249E-01  0.249E-01
 -21.302  0.256E-01  0.256E-01
 -21.301  0.263E-01  0.263E-01
 -21.300  0.270E-01  0.270E-01
 -21.299  0.277E-01  0.277E-01
 -21.298  0.284E-01  0.284E-01
 -21.297  0.291E-01  0.291E-01
 -21.296  0.298E-01  0.298E-01
 -21.295  0.306E-01  0.306E-01
 -21.294  0.313E-01  0.313E-01
 -21.293  0.320E-01  0.320E-01
 -21.292  0.328E-01  0.328E-01
 -21.291  0.335E-01  0.335E-01
 -21.290  0.343E-01  0.343E-01
 -21.289  0.351E-01  0.351E-01
 -21.288  0.358E-01  0.358E-01
 -21.287  0.366E-01  0.366E-01
 -21.286  0.374E-01  0.374E-01
 -21.285  0.381E-01  0.381E-01
 -21.284  0.389E-01  0.389E-01
 -21.283  0.397E-01  0.397E-01
 -21.282  0.405E-01  0.405E-01
 -21.281  0.413E-01  0.413E-01
 -21.280  0.420E-01  0.420E-01
 -21.279  0.428E-01  0.428E-01
 -21.278  0.436E-01  0.436E-01
 -21.277  0.444E-01  0.444E-01
 -21.276  0.452E-01  0.452E-01
 -21.275  0.459E-01  0.459E-01
 -21.274  0.467E-01  0.467E-01
 -21.273  0.475E-01  0.475E-01
 -21.272  0.482E-01  0.482E-01
 -21.271  0.490E-01  0.490E-01
 -21.270  0.498E-01  0.498E-01
 -21.269  0.505E-01  0.505E-01
 -21.268  0.513E-01  0.513E-01
 -21.267  0.520E-01  0.520E-01
 -21.266  0.528E-01  0.528E-01
 -21.265  0.535E-01  0.535E-01
 -21.264  0.542E-01  0.542E-01
 -21.263  0.550E-01  0.550E-01
 -21.262  0.557E-01  0.557E-01
 -21.261  0.564E-01  0.564E-01
 -21.260  0.571E-01  0.571E-01
 -21.259  0.578E-01  0.578E-01
 -21.258  0.585E-01  0.585E-01
 -21.257  0.592E-01  0.592E-01
 -21.256  0.599E-01  0.599E-01
 -21.255  0.606E-01  0.606E-01
 -21.254  0.612E-01  0.612E-01
 -21.253  0.619E-01  0.619E-01
 -21.252  0.625E-01  0.625E-01
 -21.251  0.632E-01  0.632E-01
 -21.250  0.638E-01  0.638E-01
 -21.249  0.644E-01  0.644E-01
 -21.248  0.651E-01  0.651E-01
 -21.247  0.657E-01  0.657E-01
 -21.246  0.663E-01  0.663E-01
 -21.245  0.669E-01  0.669E-01
 -21.244  0.675E-01  0.675E-01
 -21.243  0.681E-01  0.681E-01
 -21.242  0.687E-01  0.687E-01
 -21.241  0.692E-01  0.692E-01
 -21.240  0.698E-01  0.698E-01
 -21.239  0.704E-01  0.704E-01
 -21.238  0.709E-01  0.709E-01
 -21.237  0.715E-01  0.715E-01
 -21.236  0.720E-01  0.720E-01
 -21.235  0.726E-01  0.726E-01
 -21.234  0.731E-01  0.731E-01
 -21.233  0.737E-01  0.737E-01
 -21.232  0.742E-01  0.742E-01
 -21.231  0.747E-01  0.747E-01
 -21.230  0.753E-01  0.753E-01
 -21.229  0.758E-01  0.758E-01
 -21.228  0.763E-01  0.763E-01
 -21.227  0.769E-01  0.769E-01
 -21.226  0.774E-01  0.774E-01
 -21.225  0.779E-01  0.779E-01
 -21.224  0.784E-01  0.784E-01
 -21.223  0.790E-01  0.790E-01
 -21.222  0.795E-01  0.795E-01
 -21.221  0.800E-01  0.800E-01
 -21.220  0.806E-01  0.806E-01
 -21.219  0.811E-01  0.811E-01
 -21.218  0.817E-01  0.817E-01
 -21.217  0.822E-01  0.822E-01
 -21.216  0.828E-01  0.828E-01
 -21.215  0.833E-01  0.833E-01
 -21.214  0.839E-01  0.839E-01
 -21.213  0.845E-01  0.845E-01
 -21.212  0.850E-01  0.850E-01
 -21.211  0.856E-01  0.856E-01
 -21.210  0.862E-01  0.862E-01
 -21.209  0.868E-01  0.868E-01
 -21.208  0.874E-01  0.874E-01
 -21.207  0.880E-01  0.880E-01
 -21.206  0.886E-01  0.886E-01
 -21.205  0.893E-01  0.893E-01
 -21.204  0.899E-01  0.899E-01
 -21.203  0.906E-01  0.906E-01
 -21.202  0.912E-01  0.912E-01
 -21.201  0.919E-01  0.919E-01
 -21.200  0.926E-01  0.926E-01
 -21.199  0.933E-01  0.933E-01
 -21.198  0.940E-01  0.940E-01
 -21.197  0.947E-01  0.947E-01
 -21.196  0.954E-01  0.954E-01
 -21.195  0.961E-01  0.961E-01
 -21.194  0.969E-01  0.969E-01
 -21.193  0.976E-01  0.976E-01
 -21.192  0.984E-01  0.984E-01
 -21.191  0.991E-01  0.991E-01
 -21.190  0.999E-01  0.999E-01
 -21.189  0.101E+00  0.101E+00
 -21.188  0.101E+00  0.101E+00
 -21.187  0.102E+00  0.102E+00
 -21.186  0.103E+00  0.103E+00
 -21.185  0.104E+00  0.104E+00
 -21.184  0.105E+00  0.105E+00
 -21.183  0.106E+00  0.106E+00
 -21.182  0.106E+00  0.106E+00
 -21.181  0.107E+00  0.107E+00
 -21.180  0.108E+00  0.108E+00
 -21.179  0.109E+00  0.109E+00
 -21.178  0.110E+00  0.110E+00
 -21.177  0.111E+00  0.111E+00
 -21.176  0.112E+00  0.112E+00
 -21.175  0.112E+00  0.112E+00
 -21.174  0.113E+00  0.113E+00
 -21.173  0.114E+00  0.114E+00
 -21.172  0.115E+00  0.115E+00
 -21.171  0.116E+00  0.116E+00
 -21.170  0.117E+00  0.117E+00
 -21.169  0.118E+00  0.118E+00
 -21.168  0.119E+00  0.119E+00
 -21.167  0.120E+00  0.120E+00
 -21.166  0.120E+00  0.120E+00
 -21.165  0.121E+00  0.121E+00
 -21.164  0.122E+00  0.122E+00
 -21.163  0.123E+00  0.123E+00
 -21.162  0.124E+00  0.124E+00
 -21.161  0.125E+00  0.125E+00
 -21.160  0.125E+00  0.125E+00
 -21.159  0.126E+00  0.126E+00
 -21.158  0.127E+00  0.127E+00
 -21.157  0.128E+00  0.128E+00
 -21.156  0.129E+00  0.129E+00
 -21.155  0.129E+00  0.129E+00
 -21.154  0.130E+00  0.130E+00
 -21.153  0.131E+00  0.131E+00
 -21.152  0.132E+00  0.132E+00
 -21.151  0.132E+00  0.132E+00
 -21.150  0.133E+00  0.133E+00
 -21.149  0.134E+00  0.134E+00
 -21.148  0.134E+00  0.134E+00
 -21.147  0.135E+00  0.135E+00
 -21.146  0.136E+00  0.136E+00
 -21.145  0.136E+00  0.136E+00
 -21.144  0.137E+00  0.137E+00
 -21.143  0.137E+00  0.137E+00
 -21.142  0.138E+00  0.138E+00
 -21.141  0.138E+00  0.138E+00
 -21.140  0.139E+00  0.139E+00
 -21.139  0.139E+00  0.139E+00
 -21.138  0.140E+00  0.140E+00
 -21.137  0.140E+00  0.140E+00
 -21.136  0.141E+00  0.141E+00
 -21.135  0.141E+00  0.141E+00
 -21.134  0.141E+00  0.141E+00
 -21.133  0.142E+00  0.142E+00
 -21.132  0.142E+00  0.142E+00
 -21.131  0.142E+00  0.142E+00
 -21.130  0.142E+00  0.142E+00
 -21.129  0.143E+00  0.143E+00
 -21.128  0.143E+00  0.143E+00
 -21.127  0.143E+00  0.143E+00
 -21.126  0.143E+00  0.143E+00
 -21.125  0.143E+00  0.143E+00
 -21.124  0.143E+00  0.143E+00
 -21.123  0.143E+00  0.143E+00
 -21.122  0.143E+00  0.143E+00
 -21.121  0.143E+00  0.143E+00
 -21.120  0.143E+00  0.143E+00
 -21.119  0.143E+00  0.143E+00
 -21.118  0.143E+00  0.143E+00
 -21.117  0.143E+00  0.143E+00
 -21.116  0.143E+00  0.143E+00
 -21.115  0.143E+00  0.143E+00
 -21.114  0.143E+00  0.143E+00
 -21.113  0.143E+00  0.143E+00
 -21.112  0.142E+00  0.142E+00
 -21.111  0.142E+00  0.142E+00
 -21.110  0.142E+00  0.142E+00
 -21.109  0.142E+00  0.142E+00
 -21.108  0.141E+00  0.141E+00
 -21.107  0.141E+00  0.141E+00
 -21.106  0.141E+00  0.141E+00
 -21.105  0.141E+00  0.141E+00
 -21.104  0.140E+00  0.140E+00
 -21.103  0.140E+00  0.140E+00
 -21.102  0.139E+00  0.139E+00
 -21.101  0.139E+00  0.139E+00
 -21.100  0.139E+00  0.139E+00
 -21.099  0.138E+00  0.138E+00
 -21.098  0.138E+00  0.138E+00
 -21.097  0.137E+00  0.137E+00
 -21.096  0.137E+00  0.137E+00
 -21.095  0.136E+00  0.136E+00
 -21.094  0.136E+00  0.136E+00
 -21.093  0.136E+00  0.136E+00
 -21.092  0.135E+00  0.135E+00
 -21.091  0.135E+00  0.135E+00
 -21.090  0.134E+00  0.134E+00
 -21.089  0.134E+00  0.134E+00
 -21.088  0.133E+00  0.133E+00
 -21.087  0.132E+00  0.132E+00
 -21.086  0.132E+00  0.132E+00
 -21.085  0.131E+00  0.131E+00
 -21.084  0.131E+00  0.131E+00
 -21.083  0.130E+00  0.130E+00
 -21.082  0.130E+00  0.130E+00
 -21.081  0.129E+00  0.129E+00
 -21.080  0.129E+00  0.129E+00
 -21.079  0.128E+00  0.128E+00
 -21.078  0.128E+00  0.128E+00
 -21.077  0.127E+00  0.127E+00
 -21.076  0.127E+00  0.127E+00
 -21.075  0.126E+00  0.126E+00
 -21.074  0.125E+00  0.125E+00
 -21.073  0.125E+00  0.125E+00
 -21.072  0.124E+00  0.124E+00
 -21.071  0.124E+00  0.124E+00
 -21.070  0.123E+00  0.123E+00
 -21.069  0.123E+00  0.123E+00
 -21.068  0.122E+00  0.122E+00
 -21.067  0.122E+00  0.122E+00
 -21.066  0.121E+00  0.121E+00
 -21.065  0.120E+00  0.120E+00
 -21.064  0.120E+00  0.120E+00
 -21.063  0.119E+00  0.119E+00
 -21.062  0.119E+00  0.119E+00
 -21.061  0.118E+00  0.118E+00
 -21.060  0.118E+00  0.118E+00
 -21.059  0.117E+00  0.117E+00
 -21.058  0.117E+00  0.117E+00
 -21.057  0.116E+00  0.116E+00
 -21.056  0.116E+00  0.116E+00
 -21.055  0.115E+00  0.115E+00
 -21.054  0.115E+00  0.115E+00
 -21.053  0.114E+00  0.114E+00
 -21.052  0.114E+00  0.114E+00
 -21.051  0.113E+00  0.113E+00
 -21.050  0.113E+00  0.113E+00
 -21.049  0.112E+00  0.112E+00
 -21.048  0.111E+00  0.111E+00
 -21.047  0.111E+00  0.111E+00
 -21.046  0.110E+00  0.110E+00
 -21.045  0.110E+00  0.110E+00
 -21.044  0.109E+00  0.109E+00
 -21.043  0.109E+00  0.109E+00
 -21.042  0.108E+00  0.108E+00
 -21.041  0.108E+00  0.108E+00
 -21.040  0.107E+00  0.107E+00
 -21.039  0.107E+00  0.107E+00
 -21.038  0.106E+00  0.106E+00
 -21.037  0.106E+00  0.106E+00
 -21.036  0.105E+00  0.105E+00
 -21.035  0.105E+00  0.105E+00
 -21.034  0.104E+00  0.104E+00
 -21.033  0.104E+00  0.104E+00
 -21.032  0.103E+00  0.103E+00
 -21.031  0.103E+00  0.103E+00
 -21.030  0.102E+00  0.102E+00
 -21.029  0.102E+00  0.102E+00
 -21.028  0.101E+00  0.101E+00
 -21.027  0.101E+00  0.101E+00
 -21.026  0.100E+00  0.100E+00
 -21.025  0.100E+00  0.100E+00
 -21.024  0.995E-01  0.995E-01
 -21.023  0.990E-01  0.990E-01
 -21.022  0.985E-01  0.985E-01
 -21.021  0.980E-01  0.980E-01
 -21.020  0.976E-01  0.976E-01
 -21.019  0.971E-01  0.971E-01
 -21.018  0.966E-01  0.966E-01
 -21.017  0.962E-01  0.962E-01
 -21.016  0.957E-01  0.957E-01
 -21.015  0.953E-01  0.953E-01
 -21.014  0.948E-01  0.948E-01
 -21.013  0.944E-01  0.944E-01
 -21.012  0.939E-01  0.939E-01
 -21.011  0.935E-01  0.935E-01
 -21.010  0.931E-01  0.931E-01
 -21.009  0.927E-01  0.927E-01
 -21.008  0.923E-01  0.923E-01
 -21.007  0.918E-01  0.918E-01
 -21.006  0.914E-01  0.914E-01
 -21.005  0.911E-01  0.911E-01
 -21.004  0.907E-01  0.907E-01
 -21.003  0.903E-01  0.903E-01
 -21.002  0.899E-01  0.899E-01
 -21.001  0.896E-01  0.896E-01
 -21.000  0.892E-01  0.892E-01
 -20.999  0.889E-01  0.889E-01
 -20.998  0.886E-01  0.886E-01
 -20.997  0.882E-01  0.882E-01
 -20.996  0.879E-01  0.879E-01
 -20.995  0.876E-01  0.876E-01
 -20.994  0.874E-01  0.874E-01
 -20.993  0.871E-01  0.871E-01
 -20.992  0.868E-01  0.868E-01
 -20.991  0.866E-01  0.866E-01
 -20.990  0.863E-01  0.863E-01
 -20.989  0.861E-01  0.861E-01
 -20.988  0.859E-01  0.859E-01
 -20.987  0.857E-01  0.857E-01
 -20.986  0.856E-01  0.856E-01
 -20.985  0.854E-01  0.854E-01
 -20.984  0.852E-01  0.852E-01
 -20.983  0.851E-01  0.851E-01
 -20.982  0.850E-01  0.850E-01
 -20.981  0.849E-01  0.849E-01
 -20.980  0.848E-01  0.848E-01
 -20.979  0.847E-01  0.847E-01
 -20.978  0.847E-01  0.847E-01