# E (eV)   ldos(E)   pdos(E)    pdos(E)    pdos(E)   
 -21.739  0.000E+00  0.000E+00  0.000E+00  0.000E+00
 -21.738  0.000E+00  0.000E+00  0.000E+00  0.000E+00
 -21.737  0.000E+00  0.000E+00  0.000E+00  0.000E+00
 -21.736  0.000E+00  0.000E+00  0.000E+00  0.000E+00
 -21.735  0.000E+00  0.000E+00  0.000E+00  0.000E+00
 -21.734  0.000E+00  0.000E+00  0.000E+00  0.000E+00
 -21.733  0.000E+00  0.000E+00  0.000E+00  0.000E+00
 -21.732  0.000E+00  0.000E+00  0.000E+00  0.000E+00
 -21.731  0.000E+00  0.000E+00  0.000E+00  0.000E+00
 -21.730  0.000E+00  0.000E+00  0.000E+00  0.000E+00
 -21.729  0.000E+00  0.000E+00  0.000E+00  0.000E+00
 -21.728  0.000E+00  0.000E+00  0.000E+00  0.000E+00
 -21.727  0.000E+00  0.000E+00  0.000E+00  0.000E+00
 -21.726  0.000E+00  0.000E+00  0.000E+00  0.000E+00
 -21.725  0.000E+00  0.000E+00  0.000E+00  0.000E+00
 -21.724  0.000E+00  0.000E+00  0.000E+00  0.000E+00
 -21.723  0.000E+00  0.000E+00  0.000E+00  0.000E+00
 -21.722  0.000E+00  0.000E+00  0.000E+00  0.000E+00
 -21.721  0.000E+00  0.000E+00  0.000E+00  0.000E+00
 -21.720  0.000E+00  0.000E+00  0.000E+00  0.000E+00
 -21.719  0.000E+00  0.000E+00  0.000E+00  0.000E+00
 -21.718  0.000E+00  0.000E+00  0.000E+00  0.000E+00
 -21.717  0.000E+00  0.000E+00  0.000E+00  0.000E+00
 -21.716  0.000E+00  0.000E+00  0.000E+00  0.000E+00
 -21.715  0.000E+00  0.000E+00  0.000E+00  0.000E+00
 -21.714  0.000E+00  0.000E+00  0.000E+00  0.000E+00
 -21.713  0.000E+00  0.000E+00  0.000E+00  0.000E+00
 -21.712  0.000E+00  0.000E+00  0.000E+00  0.000E+00
 -21.711  0.000E+00  0.000E+00  0.000E+00  0.000E+00
 -21.710  0.000E+00  0.000E+00  0.000E+00  0.000E+00
 -21.709  0.000E+00  0.000E+00  0.000E+00  0.000E+00
 -21.708  0.000E+00  0.000E+00  0.000E+00  0.000E+00
 -21.707  0.000E+00  0.000E+00  0.000E+00  0.000E+00
 -21.706  0.000E+00  0.000E+00  0.000E+00  0.000E+00
 -21.705  0.000E+00  0.000E+00  0.000E+00  0.000E+00
 -21.704  0.000E+00  0.000E+00  0.000E+00  0.000E+00
 -21.703  0.000E+00  0.000E+00  0.000E+00  0.000E+00
 -21.702  0.000E+00  0.000E+00  0.000E+00  0.000E+00
 -21.701  0.000E+00  0.000E+00  0.000E+00  0.000E+00
 -21.700  0.000E+00  0.000E+00  0.000E+00  0.000E+00
 -21.699  0.000E+00  0.000E+00  0.000E+00  0.000E+00
 -21.698  0.000E+00  0.000E+00  0.000E+00  0.000E+00
 -21.697  0.000E+00  0.000E+00  0.000E+00  0.000E+00
 -21.696  0.000E+00  0.000E+00  0.000E+00  0.000E+00
 -21.695  0.000E+00  0.000E+00  0.000E+00  0.000E+00
 -21.694  0.000E+00  0.000E+00  0.000E+00  0.000E+00
 -21.693  0.000E+00  0.000E+00  0.000E+00  0.000E+00
 -21.692  0.000E+00  0.000E+00  0.000E+00  0.000E+00
 -21.691  0.000E+00  0.000E+00  0.000E+00  0.000E+00
 -21.690  0.000E+00  0.000E+00  0.000E+00  0.000E+00
 -21.689  0.000E+00  0.000E+00  0.000E+00  0.000E+00
 -21.688  0.000E+00  0.000E+00  0.000E+00  0.000E+00
 -21.687  0.000E+00  0.000E+00  0.000E+00  0.000E+00
 -21.686  0.000E+00  0.000E+00  0.000E+00  0.000E+00
 -21.685  0.000E+00  0.000E+00  0.000E+00  0.000E+00
 -21.684  0.000E+00  0.000E+00  0.000E+00  0.000E+00
 -21.683  0.000E+00  0.000E+00  0.000E+00  0.000E+00
 -21.682  0.000E+00  0.000E+00  0.000E+00  0.000E+00
 -21.681  0.000E+00  0.000E+00  0.000E+00  0.000E+00
 -21.680  0.000E+00  0.000E+00  0.000E+00  0.000E+00
 -21.679  0.000E+00  0.000E+00  0.000E+00  0.000E+00
 -21.678  0.000E+00  0.000E+00  0.000E+00  0.000E+00
 -21.677  0.000E+00  0.000E+00  0.000E+00  0.000E+00
 -21.676  0.000E+00  0.000E+00  0.000E+00  0.000E+00
 -21.675  0.000E+00  0.000E+00  0.000E+00  0.000E+00
 -21.674  0.000E+00  0.000E+00  0.000E+00  0.000E+00
 -21.673  0.000E+00  0.000E+00  0.000E+00  0.000E+00
 -21.672  0.000E+00  0.000E+00  0.000E+00  0.000E+00
 -21.671  0.000E+00  0.000E+00  0.000E+00  0.000E+00
 -21.670  0.000E+00  0.000E+00  0.000E+00  0.000E+00
 -21.669  0.000E+00  0.000E+00  0.000E+00  0.000E+00
 -21.668  0.000E+00  0.000E+00  0.000E+00  0.000E+00
 -21.667  0.000E+00  0.000E+00  0.000E+00  0.000E+00
 -21.666  0.000E+00  0.000E+00  0.000E+00  0.000E+00
 -21.665  0.000E+00  0.000E+00  0.000E+00  0.000E+00
 -21.664  0.000E+00  0.000E+00  0.000E+00  0.000E+00
 -21.663  0.000E+00  0.000E+00  0.000E+00  0.000E+00
 -21.662  0.000E+00  0.000E+00  0.000E+00  0.000E+00
 -21.661  0.000E+00  0.000E+00  0.000E+00  0.000E+00
 -21.660  0.000E+00  0.000E+00  0.000E+00  0.000E+00
 -21.659  0.000E+00  0.000E+00  0.000E+00  0.000E+00
 -21.658  0.000E+00  0.000E+00  0.000E+00  0.000E+00
 -21.657  0.000E+00  0.000E+00  0.000E+00  0.000E+00
 -21.656  0.000E+00  0.000E+00  0.000E+00  0.000E+00
 -21.655  0.000E+00  0.000E+00  0.000E+00  0.000E+00
 -21.654  0.000E+00  0.000E+00  0.000E+00  0.000E+00
 -21.653  0.000E+00  0.000E+00  0.000E+00  0.000E+00
 -21.652  0.000E+00  0.000E+00  0.000E+00  0.000E+00
 -21.651  0.000E+00  0.000E+00  0.000E+00  0.000E+00
 -21.650  0.000E+00  0.000E+00  0.000E+00  0.000E+00
 -21.649  0.000E+00  0.000E+00  0.000E+00  0.000E+00
 -21.648  0.000E+00  0.000E+00  0.000E+00  0.000E+00
 -21.647  0.000E+00  0.000E+00  0.000E+00  0.000E+00
 -21.646  0.000E+00  0.000E+00  0.000E+00  0.000E+00
 -21.645  0.000E+00  0.000E+00  0.000E+00  0.000E+00
 -21.644  0.000E+00  0.000E+00  0.000E+00  0.000E+00
 -21.643  0.000E+00  0.000E+00  0.000E+00  0.000E+00
 -21.642  0.000E+00  0.000E+00  0.000E+00  0.000E+00
 -21.641  0.000E+00  0.000E+00  0.000E+00  0.000E+00
 -21.640  0.000E+00  0.000E+00  0.000E+00  0.000E+00
 -21.639  0.000E+00  0.000E+00  0.000E+00  0.000E+00
 -21.638  0.000E+00  0.000E+00  0.000E+00  0.000E+00
 -21.637  0.000E+00  0.000E+00  0.000E+00  0.000E+00
 -21.636  0.000E+00  0.000E+00  0.000E+00  0.000E+00
 -21.635  0.000E+00  0.000E+00  0.000E+00  0.000E+00
 -21.634  0.000E+00  0.000E+00  0.000E+00  0.000E+00
 -21.633  0.000E+00  0.000E+00  0.000E+00  0.000E+00
 -21.632  0.000E+00  0.000E+00  0.000E+00  0.000E+00
 -21.631  0.000E+00  0.000E+00  0.000E+00  0.000E+00
 -21.630  0.000E+00  0.000E+00  0.000E+00  0.000E+00
 -21.629  0.000E+00  0.000E+00  0.000E+00  0.000E+00
 -21.628  0.000E+00  0.000E+00  0.000E+00  0.000E+00
 -21.627  0.000E+00  0.000E+00  0.000E+00  0.000E+00
 -21.626  0.000E+00  0.000E+00  0.000E+00  0.000E+00
 -21.625  0.000E+00  0.000E+00  0.000E+00  0.000E+00
 -21.624  0.000E+00  0.000E+00  0.000E+00  0.000E+00
 -21.623  0.000E+00  0.000E+00  0.000E+00  0.000E+00
 -21.622  0.000E+00  0.000E+00  0.000E+00  0.000E+00
 -21.621  0.000E+00  0.000E+00  0.000E+00  0.000E+00
 -21.620  0.000E+00  0.000E+00  0.000E+00  0.000E+00
 -21.619  0.000E+00  0.000E+00  0.000E+00  0.000E+00
 -21.618  0.000E+00  0.000E+00  0.000E+00  0.000E+00
 -21.617  0.000E+00  0.000E+00  0.000E+00  0.000E+00
 -21.616  0.000E+00  0.000E+00  0.000E+00  0.000E+00
 -21.615  0.000E+00  0.000E+00  0.000E+00  0.000E+00
 -21.614  0.000E+00  0.000E+00  0.000E+00  0.000E+00
 -21.613  0.000E+00  0.000E+00  0.000E+00  0.000E+00
 -21.612  0.000E+00  0.000E+00  0.000E+00  0.000E+00
 -21.611  0.000E+00  0.000E+00  0.000E+00  0.000E+00
 -21.610  0.000E+00  0.000E+00  0.000E+00  0.000E+00
 -21.609  0.000E+00  0.000E+00  0.000E+00  0.000E+00
 -21.608  0.000E+00  0.000E+00  0.000E+00  0.000E+00
 -21.607  0.000E+00  0.000E+00  0.000E+00  0.000E+00
 -21.606  0.000E+00  0.000E+00  0.000E+00  0.000E+00
 -21.605  0.000E+00  0.000E+00  0.000E+00  0.000E+00
 -21.604  0.000E+00  0.000E+00  0.000E+00  0.000E+00
 -21.603  0.000E+00  0.000E+00  0.000E+00  0.000E+00
 -21.602  0.000E+00  0.000E+00  0.000E+00  0.000E+00
 -21.601  0.000E+00  0.000E+00  0.000E+00  0.000E+00
 -21.600  0.000E+00  0.000E+00  0.000E+00  0.000E+00
 -21.599  0.000E+00  0.000E+00  0.000E+00  0.000E+00
 -21.598  0.000E+00  0.000E+00  0.000E+00  0.000E+00
 -21.597  0.000E+00  0.000E+00  0.000E+00  0.000E+00
 -21.596  0.000E+00  0.000E+00  0.000E+00  0.000E+00
 -21.595  0.000E+00  0.000E+00  0.000E+00  0.000E+00
 -21.594  0.000E+00  0.000E+00  0.000E+00  0.000E+00
 -21.593  0.000E+00  0.000E+00  0.000E+00  0.000E+00
 -21.592  0.000E+00  0.000E+00  0.000E+00  0.000E+00
 -21.591  0.000E+00  0.000E+00  0.000E+00  0.000E+00
 -21.590  0.000E+00  0.000E+00  0.000E+00  0.000E+00
 -21.589  0.000E+00  0.000E+00  0.000E+00  0.000E+00
 -21.588  0.000E+00  0.000E+00  0.000E+00  0.000E+00
 -21.587  0.000E+00  0.000E+00  0.000E+00  0.000E+00
 -21.586  0.000E+00  0.000E+00  0.000E+00  0.000E+00
 -21.585  0.000E+00  0.000E+00  0.000E+00  0.000E+00
 -21.584  0.000E+00  0.000E+00  0.000E+00  0.000E+00
 -21.583  0.000E+00  0.000E+00  0.000E+00  0.000E+00
 -21.582  0.000E+00  0.000E+00  0.000E+00  0.000E+00
 -21.581  0.000E+00  0.000E+00  0.000E+00  0.000E+00
 -21.580  0.000E+00  0.000E+00  0.000E+00  0.000E+00
 -21.579  0.000E+00  0.000E+00  0.000E+00  0.000E+00
 -21.578  0.000E+00  0.000E+00  0.000E+00  0.000E+00
 -21.577  0.000E+00  0.000E+00  0.000E+00  0.000E+00
 -21.576  0.000E+00  0.000E+00  0.000E+00  0.000E+00
 -21.575  0.000E+00  0.000E+00  0.000E+00  0.000E+00
 -21.574  0.000E+00  0.000E+00  0.000E+00  0.000E+00
 -21.573  0.000E+00  0.000E+00  0.000E+00  0.000E+00
 -21.572  0.000E+00  0.000E+00  0.000E+00  0.000E+00
 -21.571  0.000E+00  0.000E+00  0.000E+00  0.000E+00
 -21.570  0.000E+00  0.000E+00  0.000E+00  0.000E+00
 -21.569  0.000E+00  0.000E+00  0.000E+00  0.000E+00
 -21.568  0.000E+00  0.000E+00  0.000E+00  0.000E+00
 -21.567  0.000E+00  0.000E+00  0.000E+00  0.000E+00
 -21.566  0.000E+00  0.000E+00  0.000E+00  0.000E+00
 -21.565  0.000E+00  0.000E+00  0.000E+00  0.000E+00
 -21.564  0.000E+00  0.000E+00  0.000E+00  0.000E+00
 -21.563  0.000E+00  0.000E+00  0.000E+00  0.000E+00
 -21.562  0.000E+00  0.000E+00  0.000E+00  0.000E+00
 -21.561  0.000E+00  0.000E+00  0.000E+00  0.000E+00
 -21.560  0.000E+00  0.000E+00  0.000E+00  0.000E+00
 -21.559  0.000E+00  0.000E+00  0.000E+00  0.000E+00
 -21.558  0.000E+00  0.000E+00  0.000E+00  0.000E+00
 -21.557  0.000E+00  0.000E+00  0.000E+00  0.000E+00
 -21.556  0.000E+00  0.000E+00  0.000E+00  0.000E+00
 -21.555  0.000E+00  0.000E+00  0.000E+00  0.000E+00
 -21.554  0.000E+00  0.000E+00  0.000E+00  0.000E+00
 -21.553  0.000E+00  0.000E+00  0.000E+00  0.000E+00
 -21.552  0.000E+00  0.000E+00  0.000E+00  0.000E+00
 -21.551  0.000E+00  0.000E+00  0.000E+00  0.000E+00
 -21.550  0.000E+00  0.000E+00  0.000E+00  0.000E+00
 -21.549  0.000E+00  0.000E+00  0.000E+00  0.000E+00
 -21.548  0.000E+00  0.000E+00  0.000E+00  0.000E+00
 -21.547  0.000E+00  0.000E+00  0.000E+00  0.000E+00
 -21.546  0.000E+00  0.000E+00  0.000E+00  0.000E+00
 -21.545  0.000E+00  0.000E+00  0.000E+00  0.000E+00
 -21.544  0.000E+00  0.000E+00  0.000E+00  0.000E+00
 -21.543  0.000E+00  0.000E+00  0.000E+00  0.000E+00
 -21.542  0.000E+00  0.000E+00  0.000E+00  0.000E+00
 -21.541  0.000E+00  0.000E+00  0.000E+00  0.000E+00
 -21.540  0.000E+00  0.000E+00  0.000E+00  0.000E+00
 -21.539  0.000E+00  0.000E+00  0.000E+00  0.000E+00
 -21.538  0.000E+00  0.000E+00  0.000E+00  0.000E+00
 -21.537  0.000E+00  0.000E+00  0.000E+00  0.000E+00
 -21.536  0.000E+00  0.000E+00  0.000E+00  0.000E+00
 -21.535  0.000E+00  0.000E+00  0.000E+00  0.000E+00
 -21.534  0.000E+00  0.000E+00  0.000E+00  0.000E+00
 -21.533  0.000E+00  0.000E+00  0.000E+00  0.000E+00
 -21.532  0.000E+00  0.000E+00  0.000E+00  0.000E+00
 -21.531  0.000E+00  0.000E+00  0.000E+00  0.000E+00
 -21.530  0.000E+00  0.000E+00  0.000E+00  0.000E+00
 -21.529  0.000E+00  0.000E+00  0.000E+00  0.000E+00
 -21.528  0.000E+00  0.000E+00  0.000E+00  0.000E+00
 -21.527  0.000E+00  0.000E+00  0.000E+00  0.000E+00
 -21.526  0.000E+00  0.000E+00  0.000E+00  0.000E+00
 -21.525  0.000E+00  0.000E+00  0.000E+00  0.000E+00
 -21.524  0.000E+00  0.000E+00  0.000E+00  0.000E+00
 -21.523  0.000E+00  0.000E+00  0.000E+00  0.000E+00
 -21.522  0.000E+00  0.000E+00  0.000E+00  0.000E+00
 -21.521  0.000E+00  0.000E+00  0.000E+00  0.000E+00
 -21.520  0.000E+00  0.000E+00  0.000E+00  0.000E+00
 -21.519  0.000E+00  0.000E+00  0.000E+00  0.000E+00
 -21.518  0.000E+00  0.000E+00  0.000E+00  0.000E+00
 -21.517  0.000E+00  0.000E+00  0.000E+00  0.000E+00
 -21.516  0.000E+00  0.000E+00  0.000E+00  0.000E+00
 -21.515  0.000E+00  0.000E+00  0.000E+00  0.000E+00
 -21.514  0.000E+00  0.000E+00  0.000E+00  0.000E+00
 -21.513  0.000E+00  0.000E+00  0.000E+00  0.000E+00
 -21.512  0.000E+00  0.000E+00  0.000E+00  0.000E+00
 -21.511  0.000E+00  0.000E+00  0.000E+00  0.000E+00
 -21.510  0.000E+00  0.000E+00  0.000E+00  0.000E+00
 -21.509  0.000E+00  0.000E+00  0.000E+00  0.000E+00
 -21.508  0.000E+00  0.000E+00  0.000E+00  0.000E+00
 -21.507  0.000E+00  0.000E+00  0.000E+00  0.000E+00
 -21.506  0.000E+00  0.000E+00  0.000E+00  0.000E+00
 -21.505  0.000E+00  0.000E+00  0.000E+00  0.000E+00
 -21.504  0.000E+00  0.000E+00  0.000E+00  0.000E+00
 -21.503  0.000E+00  0.000E+00  0.000E+00  0.000E+00
 -21.502  0.000E+00  0.000E+00  0.000E+00  0.000E+00
 -21.501  0.000E+00  0.000E+00  0.000E+00  0.000E+00
 -21.500  0.000E+00  0.000E+00  0.000E+00  0.000E+00
 -21.499  0.000E+00  0.000E+00  0.000E+00  0.000E+00
 -21.498  0.000E+00  0.000E+00  0.000E+00  0.000E+00
 -21.497  0.000E+00  0.000E+00  0.000E+00  0.000E+00
 -21.496  0.000E+00  0.000E+00  0.000E+00  0.000E+00
 -21.495  0.000E+00  0.000E+00  0.000E+00  0.000E+00
 -21.494  0.000E+00  0.000E+00  0.000E+00  0.000E+00
 -21.493  0.000E+00  0.000E+00  0.000E+00  0.000E+00
 -21.492  0.000E+00  0.000E+00  0.000E+00  0.000E+00
 -21.491  0.000E+00  0.000E+00  0.000E+00  0.000E+00
 -21.490  0.000E+00  0.000E+00  0.000E+00  0.000E+00
 -21.489  0.000E+00  0.000E+00  0.000E+00  0.000E+00
 -21.488  0.000E+00  0.000E+00  0.000E+00  0.000E+00
 -21.487  0.000E+00  0.000E+00  0.000E+00  0.000E+00
 -21.486  0.000E+00  0.000E+00  0.000E+00  0.000E+00
 -21.485  0.000E+00  0.000E+00  0.000E+00  0.000E+00
 -21.484  0.000E+00  0.000E+00  0.000E+00  0.000E+00
 -21.483  0.000E+00  0.000E+00  0.000E+00  0.000E+00
 -21.482  0.000E+00  0.000E+00  0.000E+00  0.000E+00
 -21.481  0.000E+00  0.000E+00  0.000E+00  0.000E+00
 -21.480  0.000E+00  0.000E+00  0.000E+00  0.000E+00
 -21.479  0.000E+00  0.000E+00  0.000E+00  0.000E+00
 -21.478  0.000E+00  0.000E+00  0.000E+00  0.000E+00
 -21.477  0.000E+00  0.000E+00  0.000E+00  0.000E+00
 -21.476  0.000E+00  0.000E+00  0.000E+00  0.000E+00
 -21.475  0.000E+00  0.000E+00  0.000E+00  0.000E+00
 -21.474  0.000E+00  0.000E+00  0.000E+00  0.000E+00
 -21.473  0.000E+00  0.000E+00  0.000E+00  0.000E+00
 -21.472  0.000E+00  0.000E+00  0.000E+00  0.000E+00
 -21.471  0.000E+00  0.000E+00  0.000E+00  0.000E+00
 -21.470  0.000E+00  0.000E+00  0.000E+00  0.000E+00
 -21.469  0.000E+00  0.000E+00  0.000E+00  0.000E+00
 -21.468  0.000E+00  0.000E+00  0.000E+00  0.000E+00
 -21.467  0.000E+00  0.000E+00  0.000E+00  0.000E+00
 -21.466  0.000E+00  0.000E+00  0.000E+00  0.000E+00
 -21.465  0.000E+00  0.000E+00  0.000E+00  0.000E+00
 -21.464  0.000E+00  0.000E+00  0.000E+00  0.000E+00
 -21.463  0.000E+00  0.000E+00  0.000E+00  0.000E+00
 -21.462  0.000E+00  0.000E+00  0.000E+00  0.000E+00
 -21.461  0.000E+00  0.000E+00  0.000E+00  0.000E+00
 -21.460  0.000E+00  0.000E+00  0.000E+00  0.000E+00
 -21.459  0.000E+00  0.000E+00  0.000E+00  0.000E+00
 -21.458  0.000E+00  0.000E+00  0.000E+00  0.000E+00
 -21.457  0.000E+00  0.000E+00  0.000E+00  0.000E+00
 -21.456  0.000E+00  0.000E+00  0.000E+00  0.000E+00
 -21.455  0.000E+00  0.000E+00  0.000E+00  0.000E+00
 -21.454  0.000E+00  0.000E+00  0.000E+00  0.000E+00
 -21.453  0.000E+00  0.000E+00  0.000E+00  0.000E+00
 -21.452  0.000E+00  0.000E+00  0.000E+00  0.000E+00
 -21.451  0.000E+00  0.000E+00  0.000E+00  0.000E+00
 -21.450  0.000E+00  0.000E+00  0.000E+00  0.000E+00
 -21.449  0.000E+00  0.000E+00  0.000E+00  0.000E+00
 -21.448  0.000E+00  0.000E+00  0.000E+00  0.000E+00
 -21.447  0.000E+00  0.000E+00  0.000E+00  0.000E+00
 -21.446  0.000E+00  0.000E+00  0.000E+00  0.000E+00
 -21.445  0.000E+00  0.000E+00  0.000E+00  0.000E+00
 -21.444  0.000E+00  0.000E+00  0.000E+00  0.000E+00
 -21.443  0.000E+00  0.000E+00  0.000E+00  0.000E+00
 -21.442  0.000E+00  0.000E+00  0.000E+00  0.000E+00
 -21.441  0.000E+00  0.000E+00  0.000E+00  0.000E+00
 -21.440  0.000E+00  0.000E+00  0.000E+00  0.000E+00
 -21.439  0.000E+00  0.000E+00  0.000E+00  0.000E+00
 -21.438  0.000E+00  0.000E+00  0.000E+00  0.000E+00
 -21.437  0.000E+00  0.000E+00  0.000E+00  0.000E+00
 -21.436  0.000E+00  0.000E+00  0.000E+00  0.000E+00
 -21.435  0.000E+00  0.000E+00  0.000E+00  0.000E+00
 -21.434  0.000E+00  0.000E+00  0.000E+00  0.000E+00
 -21.433  0.000E+00  0.000E+00  0.000E+00  0.000E+00
 -21.432  0.000E+00  0.000E+00  0.000E+00  0.000E+00
 -21.431  0.000E+00  0.000E+00  0.000E+00  0.000E+00
 -21.430  0.000E+00  0.000E+00  0.000E+00  0.000E+00
 -21.429  0.000E+00  0.000E+00  0.000E+00  0.000E+00
 -21.428  0.000E+00  0.000E+00  0.000E+00  0.000E+00
 -21.427  0.000E+00  0.000E+00  0.000E+00  0.000E+00
 -21.426  0.000E+00  0.000E+00  0.000E+00  0.000E+00
 -21.425  0.000E+00  0.000E+00  0.000E+00  0.000E+00
 -21.424  0.000E+00  0.000E+00  0.000E+00  0.000E+00
 -21.423  0.000E+00  0.000E+00  0.000E+00  0.000E+00
 -21.422  0.000E+00  0.000E+00  0.000E+00  0.000E+00
 -21.421  0.000E+00  0.000E+00  0.000E+00  0.000E+00
 -21.420  0.000E+00  0.000E+00  0.000E+00  0.000E+00
 -21.419  0.000E+00  0.000E+00  0.000E+00  0.000E+00
 -21.418  0.000E+00  0.000E+00  0.000E+00  0.000E+00
 -21.417  0.000E+00  0.000E+00  0.000E+00  0.000E+00
 -21.416  0.000E+00  0.000E+00  0.000E+00  0.000E+00
 -21.415  0.000E+00  0.000E+00  0.000E+00  0.000E+00
 -21.414  0.000E+00  0.000E+00  0.000E+00  0.000E+00
 -21.413  0.000E+00  0.000E+00  0.000E+00  0.000E+00
 -21.412  0.000E+00  0.000E+00  0.000E+00  0.000E+00
 -21.411  0.000E+00  0.000E+00  0.000E+00  0.000E+00
 -21.410  0.000E+00  0.000E+00  0.000E+00  0.000E+00
 -21.409  0.000E+00  0.000E+00  0.000E+00  0.000E+00
 -21.408  0.000E+00  0.000E+00  0.000E+00  0.000E+00
 -21.407  0.000E+00  0.000E+00  0.000E+00  0.000E+00
 -21.406  0.000E+00  0.000E+00  0.000E+00  0.000E+00
 -21.405  0.000E+00  0.000E+00  0.000E+00  0.000E+00
 -21.404  0.000E+00  0.000E+00  0.000E+00  0.000E+00
 -21.403  0.000E+00  0.000E+00  0.000E+00  0.000E+00
 -21.402  0.000E+00  0.000E+00  0.000E+00  0.000E+00
 -21.401  0.000E+00  0.000E+00  0.000E+00  0.000E+00
 -21.400  0.000E+00  0.000E+00  0.000E+00  0.000E+00
 -21.399  0.000E+00  0.000E+00  0.000E+00  0.000E+00
 -21.398  0.000E+00  0.000E+00  0.000E+00  0.000E+00
 -21.397  0.000E+00  0.000E+00  0.000E+00  0.000E+00
 -21.396  0.000E+00  0.000E+00  0.000E+00  0.000E+00
 -21.395  0.000E+00  0.000E+00  0.000E+00  0.000E+00
 -21.394  0.000E+00  0.000E+00  0.000E+00  0.000E+00
 -21.393  0.000E+00  0.000E+00  0.000E+00  0.000E+00
 -21.392  0.000E+00  0.000E+00  0.000E+00  0.000E+00
 -21.391  0.000E+00  0.000E+00  0.000E+00  0.000E+00
 -21.390  0.000E+00  0.000E+00  0.000E+00  0.000E+00
 -21.389  0.000E+00  0.000E+00  0.000E+00  0.000E+00
 -21.388  0.000E+00  0.000E+00  0.000E+00  0.000E+00
 -21.387  0.000E+00  0.000E+00  0.000E+00  0.000E+00
 -21.386  0.000E+00  0.000E+00  0.000E+00  0.000E+00
 -21.385  0.000E+00  0.000E+00  0.000E+00  0.000E+00
 -21.384  0.000E+00  0.000E+00  0.000E+00  0.000E+00
 -21.383  0.000E+00  0.000E+00  0.000E+00  0.000E+00
 -21.382  0.000E+00  0.000E+00  0.000E+00  0.000E+00
 -21.381  0.000E+00  0.000E+00  0.000E+00  0.000E+00
 -21.380  0.000E+00  0.000E+00  0.000E+00  0.000E+00
 -21.379  0.000E+00  0.000E+00  0.000E+00  0.000E+00
 -21.378  0.000E+00  0.000E+00  0.000E+00  0.000E+00
 -21.377  0.000E+00  0.000E+00  0.000E+00  0.000E+00
 -21.376  0.000E+00  0.000E+00  0.000E+00  0.000E+00
 -21.375  0.000E+00  0.000E+00  0.000E+00  0.000E+00
 -21.374  0.000E+00  0.000E+00  0.000E+00  0.000E+00
 -21.373  0.000E+00  0.000E+00  0.000E+00  0.000E+00
 -21.372  0.000E+00  0.000E+00  0.000E+00  0.000E+00
 -21.371  0.000E+00  0.000E+00  0.000E+00  0.000E+00
 -21.370  0.000E+00  0.000E+00  0.000E+00  0.000E+00
 -21.369  0.000E+00  0.000E+00  0.000E+00  0.000E+00
 -21.368  0.000E+00  0.000E+00  0.000E+00  0.000E+00
 -21.367  0.000E+00  0.000E+00  0.000E+00  0.000E+00
 -21.366  0.000E+00  0.000E+00  0.000E+00  0.000E+00
 -21.365  0.000E+00  0.000E+00  0.000E+00  0.000E+00
 -21.364  0.000E+00  0.000E+00  0.000E+00  0.000E+00
 -21.363  0.000E+00  0.000E+00  0.000E+00  0.000E+00
 -21.362  0.000E+00  0.000E+00  0.000E+00  0.000E+00
 -21.361  0.000E+00  0.000E+00  0.000E+00  0.000E+00
 -21.360  0.000E+00  0.000E+00  0.000E+00  0.000E+00
 -21.359  0.000E+00  0.000E+00  0.000E+00  0.000E+00
 -21.358  0.000E+00  0.000E+00  0.000E+00  0.000E+00
 -21.357  0.000E+00  0.000E+00  0.000E+00  0.000E+00
 -21.356  0.000E+00  0.000E+00  0.000E+00  0.000E+00
 -21.355  0.000E+00  0.000E+00  0.000E+00  0.000E+00
 -21.354  0.000E+00  0.000E+00  0.000E+00  0.000E+00
 -21.353  0.000E+00  0.000E+00  0.000E+00  0.000E+00
 -21.352  0.000E+00  0.000E+00  0.000E+00  0.000E+00
 -21.351  0.000E+00  0.000E+00  0.000E+00  0.000E+00
 -21.350  0.000E+00  0.000E+00  0.000E+00  0.000E+00
 -21.349  0.000E+00  0.000E+00  0.000E+00  0.000E+00
 -21.348  0.000E+00  0.000E+00  0.000E+00  0.000E+00
 -21.347  0.000E+00  0.000E+00  0.000E+00  0.000E+00
 -21.346  0.000E+00  0.000E+00  0.000E+00  0.000E+00
 -21.345  0.000E+00  0.000E+00  0.000E+00  0.000E+00
 -21.344  0.000E+00  0.000E+00  0.000E+00  0.000E+00
 -21.343  0.000E+00  0.000E+00  0.000E+00  0.000E+00
 -21.342  0.000E+00  0.000E+00  0.000E+00  0.000E+00
 -21.341  0.000E+00  0.000E+00  0.000E+00  0.000E+00
 -21.340  0.000E+00  0.000E+00  0.000E+00  0.000E+00
 -21.339  0.000E+00  0.000E+00  0.000E+00  0.000E+00
 -21.338  0.000E+00  0.000E+00  0.000E+00  0.000E+00
 -21.337  0.000E+00  0.000E+00  0.000E+00  0.000E+00
 -21.336  0.000E+00  0.000E+00  0.000E+00  0.000E+00
 -21.335  0.000E+00  0.000E+00  0.000E+00  0.000E+00
 -21.334  0.000E+00  0.000E+00  0.000E+00  0.000E+00
 -21.333  0.000E+00  0.000E+00  0.000E+00  0.000E+00
 -21.332  0.000E+00  0.000E+00  0.000E+00  0.000E+00
 -21.331  0.000E+00  0.000E+00  0.000E+00  0.000E+00
 -21.330  0.000E+00  0.000E+00  0.000E+00  0.000E+00
 -21.329  0.000E+00  0.000E+00  0.000E+00  0.000E+00
 -21.328  0.000E+00  0.000E+00  0.000E+00  0.000E+00
 -21.327  0.000E+00  0.000E+00  0.000E+00  0.000E+00
 -21.326  0.000E+00  0.000E+00  0.000E+00  0.000E+00
 -21.325  0.000E+00  0.000E+00  0.000E+00  0.000E+00
 -21.324  0.000E+00  0.000E+00  0.000E+00  0.000E+00
 -21.323  0.000E+00  0.000E+00  0.000E+00  0.000E+00
 -21.322  0.000E+00  0.000E+00  0.000E+00  0.000E+00
 -21.321  0.000E+00  0.000E+00  0.000E+00  0.000E+00
 -21.320  0.000E+00  0.000E+00  0.000E+00  0.000E+00
 -21.319  0.000E+00  0.000E+00  0.000E+00  0.000E+00
 -21.318  0.000E+00  0.000E+00  0.000E+00  0.000E+00
 -21.317  0.000E+00  0.000E+00  0.000E+00  0.000E+00
 -21.316  0.000E+00  0.000E+00  0.000E+00  0.000E+00
 -21.315  0.000E+00  0.000E+00  0.000E+00  0.000E+00
 -21.314  0.000E+00  0.000E+00  0.000E+00  0.000E+00
 -21.313  0.000E+00  0.000E+00  0.000E+00  0.000E+00
 -21.312  0.000E+00  0.000E+00  0.000E+00  0.000E+00
 -21.311  0.000E+00  0.000E+00  0.000E+00  0.000E+00
 -21.310  0.000E+00  0.000E+00  0.000E+00  0.000E+00
 -21.309  0.000E+00  0.000E+00  0.000E+00  0.000E+00
 -21.308  0.000E+00  0.000E+00  0.000E+00  0.000E+00
 -21.307  0.000E+00  0.000E+00  0.000E+00  0.000E+00
 -21.306  0.000E+00  0.000E+00  0.000E+00  0.000E+00
 -21.305  0.000E+00  0.000E+00  0.000E+00  0.000E+00
 -21.304  0.000E+00  0.000E+00  0.000E+00  0.000E+00
 -21.303  0.000E+00  0.000E+00  0.000E+00  0.000E+00
 -21.302  0.000E+00  0.000E+00  0.000E+00  0.000E+00
 -21.301  0.000E+00  0.000E+00  0.000E+00  0.000E+00
 -21.300  0.000E+00  0.000E+00  0.000E+00  0.000E+00
 -21.299  0.000E+00  0.000E+00  0.000E+00  0.000E+00
 -21.298  0.000E+00  0.000E+00  0.000E+00  0.000E+00
 -21.297  0.000E+00  0.000E+00  0.000E+00  0.000E+00
 -21.296  0.000E+00  0.000E+00  0.000E+00  0.000E+00
 -21.295  0.000E+00  0.000E+00  0.000E+00  0.000E+00
 -21.294  0.000E+00  0.000E+00  0.000E+00  0.000E+00
 -21.293  0.000E+00  0.000E+00  0.000E+00  0.000E+00
 -21.292  0.000E+00  0.000E+00  0.000E+00  0.000E+00
 -21.291  0.000E+00  0.000E+00  0.000E+00  0.000E+00
 -21.290  0.000E+00  0.000E+00  0.000E+00  0.000E+00
 -21.289  0.000E+00  0.000E+00  0.000E+00  0.000E+00
 -21.288  0.000E+00  0.000E+00  0.000E+00  0.000E+00
 -21.287  0.000E+00  0.000E+00  0.000E+00  0.000E+00
 -21.286  0.000E+00  0.000E+00  0.000E+00  0.000E+00
 -21.285  0.000E+00  0.000E+00  0.000E+00  0.000E+00
 -21.284  0.000E+00  0.000E+00  0.000E+00  0.000E+00
 -21.283  0.000E+00  0.000E+00  0.000E+00  0.000E+00
 -21.282  0.000E+00  0.000E+00  0.000E+00  0.000E+00
 -21.281  0.000E+00  0.000E+00  0.000E+00  0.000E+00
 -21.280  0.000E+00  0.000E+00  0.000E+00  0.000E+00
 -21.279  0.000E+00  0.000E+00  0.000E+00  0.000E+00
 -21.278  0.000E+00  0.000E+00  0.000E+00  0.000E+00
 -21.277  0.000E+00  0.000E+00  0.000E+00  0.000E+00
 -21.276  0.000E+00  0.000E+00  0.000E+00  0.000E+00
 -21.275  0.000E+00  0.000E+00  0.000E+00  0.000E+00
 -21.274  0.000E+00  0.000E+00  0.000E+00  0.000E+00
 -21.273  0.000E+00  0.000E+00  0.000E+00  0.000E+00
 -21.272  0.000E+00  0.000E+00  0.000E+00  0.000E+00
 -21.271  0.000E+00  0.000E+00  0.000E+00  0.000E+00
 -21.270  0.000E+00  0.000E+00  0.000E+00  0.000E+00
 -21.269  0.000E+00  0.000E+00  0.000E+00  0.000E+00
 -21.268  0.000E+00  0.000E+00  0.000E+00  0.000E+00
 -21.267  0.000E+00  0.000E+00  0.000E+00  0.000E+00
 -21.266  0.000E+00  0.000E+00  0.000E+00  0.000E+00
 -21.265  0.000E+00  0.000E+00  0.000E+00  0.000E+00
 -21.264  0.000E+00  0.000E+00  0.000E+00  0.000E+00
 -21.263  0.000E+00  0.000E+00  0.000E+00  0.000E+00
 -21.262  0.000E+00  0.000E+00  0.000E+00  0.000E+00
 -21.261  0.000E+00  0.000E+00  0.000E+00  0.000E+00
 -21.260  0.000E+00  0.000E+00  0.000E+00  0.000E+00
 -21.259  0.000E+00  0.000E+00  0.000E+00  0.000E+00
 -21.258  0.000E+00  0.000E+00  0.000E+00  0.000E+00
 -21.257  0.000E+00  0.000E+00  0.000E+00  0.000E+00
 -21.256  0.000E+00  0.000E+00  0.000E+00  0.000E+00
 -21.255  0.000E+00  0.000E+00  0.000E+00  0.000E+00
 -21.254  0.000E+00  0.000E+00  0.000E+00  0.000E+00
 -21.253  0.000E+00  0.000E+00  0.000E+00  0.000E+00
 -21.252  0.000E+00  0.000E+00  0.000E+00  0.000E+00
 -21.251  0.000E+00  0.000E+00  0.000E+00  0.000E+00
 -21.250  0.000E+00  0.000E+00  0.000E+00  0.000E+00
 -21.249  0.000E+00  0.000E+00  0.000E+00  0.000E+00
 -21.248  0.000E+00  0.000E+00  0.000E+00  0.000E+00
 -21.247  0.000E+00  0.000E+00  0.000E+00  0.000E+00
 -21.246  0.000E+00  0.000E+00  0.000E+00  0.000E+00
 -21.245  0.000E+00  0.000E+00  0.000E+00  0.000E+00
 -21.244  0.213E+00  0.129E-04  0.599E-01  0.153E+00
 -21.243  0.179E+00  0.960E-05  0.608E-01  0.118E+00
 -21.242  0.125E+00  0.590E-05  0.491E-01  0.757E-01
 -21.241  0.152E+00  0.601E-05  0.705E-01  0.820E-01
 -21.240  0.993E-01  0.361E-05  0.486E-01  0.507E-01
 -21.239  0.599E-01  0.223E-05  0.288E-01  0.311E-01
 -21.238  0.521E-01  0.187E-05  0.257E-01  0.264E-01
 -21.237  0.387E-01  0.134E-05  0.195E-01  0.192E-01
 -21.236  0.256E-01  0.875E-06  0.130E-01  0.126E-01
 -21.235  0.236E-01  0.791E-06  0.121E-01  0.115E-01
 -21.234  0.216E-01  0.710E-06  0.112E-01  0.104E-01
 -21.233  0.197E-01  0.633E-06  0.103E-01  0.933E-02
 -21.232  0.177E-01  0.560E-06  0.942E-02  0.832E-02
 -21.231  0.872E-02  0.272E-06  0.464E-02  0.409E-02
 -21.230  0.772E-02  0.240E-06  0.402E-02  0.370E-02
 -21.229  0.671E-02  0.208E-06  0.342E-02  0.329E-02
 -21.228  0.570E-02  0.176E-06  0.285E-02  0.286E-02
 -21.227  0.469E-02  0.144E-06  0.229E-02  0.240E-02
 -21.226  0.367E-02  0.112E-06  0.176E-02  0.192E-02
 -21.225  0.265E-02  0.808E-07  0.124E-02  0.141E-02
 -21.224  0.163E-02  0.495E-07  0.745E-03  0.886E-03
 -21.223  0.606E-03  0.183E-07  0.271E-03  0.336E-03
 -21.222  0.000E+00  0.000E+00  0.000E+00  0.000E+00
 -21.221  0.330E-03  0.971E-08  0.218E-03  0.111E-03
 -21.220  0.915E-03  0.271E-07  0.596E-03  0.319E-03
 -21.219  0.151E-02  0.450E-07  0.966E-03  0.541E-03
 -21.218  0.211E-02  0.633E-07  0.133E-02  0.779E-03
 -21.217  0.271E-02  0.820E-07  0.168E-02  0.103E-02
 -21.216  0.332E-02  0.101E-06  0.203E-02  0.130E-02
 -21.215  0.394E-02  0.121E-06  0.236E-02  0.158E-02
 -21.214  0.457E-02  0.141E-06  0.269E-02  0.188E-02
 -21.213  0.520E-02  0.161E-06  0.301E-02  0.219E-02
 -21.212  0.584E-02  0.182E-06  0.332E-02  0.252E-02
 -21.211  0.649E-02  0.203E-06  0.363E-02  0.286E-02
 -21.210  0.714E-02  0.225E-06  0.392E-02  0.321E-02
 -21.209  0.837E-02  0.266E-06  0.455E-02  0.382E-02
 -21.208  0.876E-02  0.282E-06  0.474E-02  0.402E-02
 -21.207  0.916E-02  0.297E-06  0.493E-02  0.423E-02
 -21.206  0.957E-02  0.314E-06  0.512E-02  0.445E-02
 -21.205  0.997E-02  0.330E-06  0.531E-02  0.467E-02
 -21.204  0.104E-01  0.347E-06  0.550E-02  0.489E-02
 -21.203  0.108E-01  0.365E-06  0.569E-02  0.512E-02
 -21.202  0.112E-01  0.383E-06  0.588E-02  0.535E-02
 -21.201  0.117E-01  0.401E-06  0.608E-02  0.559E-02
 -21.200  0.121E-01  0.420E-06  0.627E-02  0.584E-02
 -21.199  0.126E-01  0.439E-06  0.647E-02  0.609E-02
 -21.198  0.130E-01  0.460E-06  0.668E-02  0.637E-02
 -21.197  0.136E-01  0.484E-06  0.690E-02  0.667E-02
 -21.196  0.141E-01  0.509E-06  0.712E-02  0.699E-02
 -21.195  0.147E-01  0.536E-06  0.734E-02  0.733E-02
 -21.194  0.152E-01  0.561E-06  0.752E-02  0.765E-02
 -21.193  0.156E-01  0.585E-06  0.766E-02  0.794E-02
 -21.192  0.160E-01  0.608E-06  0.780E-02  0.823E-02
 -21.191  0.165E-01  0.632E-06  0.794E-02  0.853E-02
 -21.190  0.169E-01  0.657E-06  0.808E-02  0.884E-02
 -21.189  0.174E-01  0.682E-06  0.822E-02  0.915E-02
 -21.188  0.178E-01  0.708E-06  0.836E-02  0.946E-02
 -21.187  0.183E-01  0.734E-06  0.850E-02  0.978E-02
 -21.186  0.188E-01  0.760E-06  0.864E-02  0.101E-01
 -21.185  0.192E-01  0.787E-06  0.878E-02  0.104E-01
 -21.184  0.197E-01  0.815E-06  0.892E-02  0.108E-01
 -21.183  0.236E-01  0.102E-05  0.103E-01  0.134E-01
 -21.182  0.248E-01  0.109E-05  0.105E-01  0.143E-01
 -21.181  0.260E-01  0.117E-05  0.108E-01  0.152E-01
 -21.180  0.271E-01  0.124E-05  0.110E-01  0.161E-01
 -21.179  0.283E-01  0.132E-05  0.112E-01  0.171E-01
 -21.178  0.295E-01  0.140E-05  0.115E-01  0.181E-01
 -21.177  0.307E-01  0.148E-05  0.117E-01  0.191E-01
 -21.176  0.313E-01  0.154E-05  0.116E-01  0.197E-01
 -21.175  0.312E-01  0.155E-05  0.114E-01  0.198E-01