#E (eV)	dos(E)	pdos(E)
-21.944	2.010E-03	1.979E-03
-21.943	2.200E-03	2.160E-03
-21.942	2.400E-03	2.360E-03
-21.941	2.620E-03	2.580E-03
-21.940	2.850E-03	2.800E-03
-21.939	3.110E-03	3.060E-03
-21.938	3.380E-03	3.340E-03
-21.937	3.690E-03	3.640E-03
-21.936	4.020E-03	3.960E-03
-21.935	4.370E-03	4.300E-03
-21.934	4.760E-03	4.680E-03
-21.933	5.170E-03	5.090E-03
-21.932	5.620E-03	5.540E-03
-21.931	6.110E-03	6.010E-03
-21.930	6.630E-03	6.530E-03
-21.929	7.200E-03	7.090E-03
-21.928	7.810E-03	7.690E-03
-21.927	8.470E-03	8.340E-03
-21.926	9.180E-03	9.040E-03
-21.925	9.950E-03	9.800E-03
-21.924	1.077E-02	1.061E-02
-21.923	1.167E-02	1.149E-02
-21.922	1.263E-02	1.243E-02
-21.921	1.365E-02	1.345E-02
-21.920	1.477E-02	1.455E-02
-21.919	1.596E-02	1.571E-02
-21.918	1.725E-02	1.698E-02
-21.917	1.862E-02	1.833E-02
-21.916	2.010E-02	1.979E-02
-21.915	2.170E-02	2.140E-02
-21.914	2.340E-02	2.300E-02
-21.913	2.520E-02	2.480E-02
-21.912	2.720E-02	2.680E-02
-21.911	2.920E-02	2.880E-02
-21.910	3.150E-02	3.100E-02
-21.909	3.390E-02	3.340E-02
-21.908	3.640E-02	3.590E-02
-21.907	3.920E-02	3.860E-02
-21.906	4.220E-02	4.150E-02
-21.905	4.520E-02	4.460E-02
-21.904	4.860E-02	4.780E-02
-21.903	5.220E-02	5.140E-02
-21.902	5.600E-02	5.510E-02
-21.901	6.000E-02	5.910E-02
-21.900	6.440E-02	6.340E-02
-21.899	6.900E-02	6.790E-02
-21.898	7.380E-02	7.270E-02
-21.897	7.910E-02	7.790E-02
-21.896	8.460E-02	8.330E-02
-21.895	9.050E-02	8.910E-02
-21.894	9.670E-02	9.530E-02
-21.893	1.034E-01	1.018E-01
-21.892	1.105E-01	1.088E-01
-21.891	1.179E-01	1.161E-01
-21.890	1.259E-01	1.240E-01
-21.889	1.343E-01	1.323E-01
-21.888	1.433E-01	1.411E-01
-21.887	1.527E-01	1.503E-01
-21.886	1.627E-01	1.603E-01
-21.885	1.733E-01	1.707E-01
-21.884	1.845E-01	1.817E-01
-21.883	1.963E-01	1.933E-01
-21.882	2.080E-01	2.060E-01
-21.881	2.220E-01	2.180E-01
-21.880	2.360E-01	2.320E-01
-21.879	2.500E-01	2.460E-01
-21.878	2.660E-01	2.620E-01
-21.877	2.820E-01	2.780E-01
-21.876	3.000E-01	2.950E-01
-21.875	3.180E-01	3.130E-01
-21.874	3.360E-01	3.320E-01
-21.873	3.560E-01	3.520E-01
-21.872	3.780E-01	3.720E-01
-21.871	4.000E-01	3.940E-01
-21.870	4.240E-01	4.170E-01
-21.869	4.480E-01	4.410E-01
-21.868	4.740E-01	4.660E-01
-21.867	5.000E-01	4.920E-01
-21.866	5.280E-01	5.200E-01
-21.865	5.580E-01	5.500E-01
-21.864	5.890E-01	5.800E-01
-21.863	6.210E-01	6.120E-01
-21.862	6.550E-01	6.450E-01
-21.861	6.900E-01	6.800E-01
-21.860	7.280E-01	7.160E-01
-21.859	7.660E-01	7.540E-01
-21.858	8.060E-01	7.940E-01
-21.857	8.480E-01	8.360E-01
-21.856	8.920E-01	8.790E-01
-21.855	9.380E-01	9.240E-01
-21.854	9.860E-01	9.710E-01
-21.853	1.036E+00	1.020E+00
-21.852	1.087E+00	1.071E+00
-21.851	1.141E+00	1.124E+00
-21.850	1.197E+00	1.179E+00
-21.849	1.255E+00	1.236E+00
-21.848	1.316E+00	1.296E+00
-21.847	1.379E+00	1.358E+00
-21.846	1.444E+00	1.422E+00
-21.845	1.511E+00	1.488E+00
-21.844	1.581E+00	1.557E+00
-21.843	1.654E+00	1.629E+00
-21.842	1.729E+00	1.703E+00
-21.841	1.807E+00	1.779E+00
-21.840	1.887E+00	1.859E+00
-21.839	1.971E+00	1.941E+00
-21.838	2.060E+00	2.020E+00
-21.837	2.140E+00	2.120E+00
-21.836	2.240E+00	2.200E+00
-21.835	2.340E+00	2.300E+00
-21.834	2.420E+00	2.400E+00
-21.833	2.530E+00	2.490E+00
-21.832	2.640E+00	2.600E+00
-21.831	2.740E+00	2.700E+00
-21.830	2.840E+00	2.800E+00
-21.829	2.960E+00	2.920E+00
-21.828	3.080E+00	3.030E+00
-21.827	3.200E+00	3.140E+00
-21.826	3.320E+00	3.260E+00
-21.825	3.440E+00	3.400E+00
-21.824	3.580E+00	3.520E+00
-21.823	3.700E+00	3.640E+00
-21.822	3.840E+00	3.780E+00
-21.821	3.980E+00	3.920E+00
-21.820	4.120E+00	4.060E+00
-21.819	4.260E+00	4.200E+00
-21.818	4.410E+00	4.340E+00
-21.817	4.560E+00	4.500E+00
-21.816	4.720E+00	4.640E+00
-21.815	4.880E+00	4.800E+00
-21.814	5.040E+00	4.960E+00
-21.813	5.200E+00	5.120E+00
-21.812	5.360E+00	5.280E+00
-21.811	5.530E+00	5.440E+00
-21.810	5.700E+00	5.620E+00
-21.809	5.880E+00	5.780E+00
-21.808	6.060E+00	5.960E+00
-21.807	6.240E+00	6.140E+00
-21.806	6.420E+00	6.320E+00
-21.805	6.600E+00	6.500E+00
-21.804	6.790E+00	6.680E+00
-21.803	6.980E+00	6.880E+00
-21.802	7.170E+00	7.060E+00
-21.801	7.360E+00	7.260E+00
-21.800	7.560E+00	7.440E+00
-21.799	7.760E+00	7.640E+00
-21.798	7.960E+00	7.840E+00
-21.797	8.160E+00	8.040E+00
-21.796	8.360E+00	8.240E+00
-21.795	8.560E+00	8.440E+00
-21.794	8.780E+00	8.640E+00
-21.793	8.980E+00	8.840E+00
-21.792	9.180E+00	9.040E+00
-21.791	9.400E+00	9.250E+00
-21.790	9.600E+00	9.460E+00
-21.789	9.810E+00	9.660E+00
-21.788	1.002E+01	9.870E+00
-21.787	1.023E+01	1.008E+01
-21.786	1.044E+01	1.028E+01
-21.785	1.064E+01	1.048E+01
-21.784	1.086E+01	1.069E+01
-21.783	1.106E+01	1.090E+01
-21.782	1.127E+01	1.110E+01
-21.781	1.148E+01	1.130E+01
-21.780	1.168E+01	1.150E+01
-21.779	1.188E+01	1.170E+01
-21.778	1.208E+01	1.190E+01
-21.777	1.228E+01	1.210E+01
-21.776	1.248E+01	1.229E+01
-21.775	1.268E+01	1.248E+01
-21.774	1.286E+01	1.267E+01
-21.773	1.306E+01	1.286E+01
-21.772	1.324E+01	1.304E+01
-21.771	1.342E+01	1.322E+01
-21.770	1.360E+01	1.340E+01
-21.769	1.378E+01	1.357E+01
-21.768	1.396E+01	1.374E+01
-21.767	1.412E+01	1.390E+01
-21.766	1.428E+01	1.406E+01
-21.765	1.444E+01	1.422E+01
-21.764	1.460E+01	1.438E+01
-21.763	1.476E+01	1.452E+01
-21.762	1.490E+01	1.467E+01
-21.761	1.504E+01	1.481E+01
-21.760	1.518E+01	1.494E+01
-21.759	1.530E+01	1.508E+01
-21.758	1.543E+01	1.520E+01
-21.757	1.554E+01	1.532E+01
-21.756	1.566E+01	1.542E+01
-21.755	1.577E+01	1.553E+01
-21.754	1.587E+01	1.562E+01
-21.753	1.596E+01	1.572E+01
-21.752	1.606E+01	1.581E+01
-21.751	1.614E+01	1.589E+01
-21.750	1.622E+01	1.596E+01
-21.749	1.628E+01	1.604E+01
-21.748	1.634E+01	1.610E+01
-21.747	1.640E+01	1.614E+01
-21.746	1.644E+01	1.620E+01
-21.745	1.648E+01	1.624E+01
-21.744	1.652E+01	1.626E+01
-21.743	1.654E+01	1.630E+01
-21.742	1.656E+01	1.632E+01
-21.741	1.658E+01	1.632E+01
-21.740	1.658E+01	1.634E+01
-21.739	1.658E+01	1.634E+01
-21.738	1.658E+01	1.632E+01
-21.737	1.656E+01	1.630E+01
-21.736	1.654E+01	1.628E+01
-21.735	1.650E+01	1.626E+01
-21.734	1.648E+01	1.622E+01
-21.733	1.642E+01	1.618E+01
-21.732	1.638E+01	1.612E+01
-21.731	1.632E+01	1.606E+01
-21.730	1.626E+01	1.600E+01
-21.729	1.618E+01	1.594E+01
-21.728	1.610E+01	1.586E+01
-21.727	1.602E+01	1.578E+01
-21.726	1.592E+01	1.568E+01
-21.725	1.583E+01	1.558E+01
-21.724	1.572E+01	1.548E+01
-21.723	1.562E+01	1.538E+01
-21.722	1.550E+01	1.526E+01
-21.721	1.538E+01	1.514E+01
-21.720	1.526E+01	1.502E+01
-21.719	1.512E+01	1.489E+01
-21.718	1.498E+01	1.476E+01
-21.717	1.484E+01	1.462E+01
-21.716	1.469E+01	1.446E+01
-21.715	1.454E+01	1.432E+01
-21.714	1.438E+01	1.416E+01
-21.713	1.422E+01	1.400E+01
-21.712	1.406E+01	1.384E+01
-21.711	1.388E+01	1.367E+01
-21.710	1.370E+01	1.350E+01
-21.709	1.353E+01	1.332E+01
-21.708	1.335E+01	1.314E+01
-21.707	1.316E+01	1.296E+01
-21.706	1.298E+01	1.278E+01
-21.705	1.278E+01	1.259E+01
-21.704	1.260E+01	1.240E+01
-21.703	1.240E+01	1.221E+01
-21.702	1.220E+01	1.202E+01
-21.701	1.200E+01	1.182E+01
-21.700	1.180E+01	1.162E+01
-21.699	1.160E+01	1.142E+01
-21.698	1.139E+01	1.122E+01
-21.697	1.118E+01	1.102E+01
-21.696	1.098E+01	1.081E+01
-21.695	1.077E+01	1.060E+01
-21.694	1.056E+01	1.040E+01
-21.693	1.036E+01	1.020E+01
-21.692	1.014E+01	9.990E+00
-21.691	9.940E+00	9.780E+00
-21.690	9.720E+00	9.580E+00
-21.689	9.520E+00	9.370E+00
-21.688	9.310E+00	9.160E+00
-21.687	9.100E+00	8.960E+00
-21.686	8.900E+00	8.760E+00
-21.685	8.680E+00	8.560E+00
-21.684	8.480E+00	8.360E+00
-21.683	8.280E+00	8.160E+00
-21.682	8.080E+00	7.960E+00
-21.681	7.880E+00	7.760E+00
-21.680	7.680E+00	7.560E+00
-21.679	7.480E+00	7.360E+00
-21.678	7.280E+00	7.180E+00
-21.677	7.100E+00	6.980E+00
-21.676	6.900E+00	6.800E+00
-21.675	6.720E+00	6.610E+00
-21.674	6.520E+00	6.420E+00
-21.673	6.340E+00	6.240E+00
-21.672	6.160E+00	6.060E+00
-21.671	5.980E+00	5.890E+00
-21.670	5.800E+00	5.720E+00
-21.669	5.630E+00	5.540E+00
-21.668	5.460E+00	5.380E+00
-21.667	5.300E+00	5.220E+00
-21.666	5.120E+00	5.050E+00
-21.665	4.960E+00	4.890E+00
-21.664	4.800E+00	4.740E+00
-21.663	4.660E+00	4.580E+00
-21.662	4.500E+00	4.430E+00
-21.661	4.350E+00	4.280E+00
-21.660	4.200E+00	4.140E+00
-21.659	4.060E+00	4.000E+00
-21.658	3.920E+00	3.860E+00
-21.657	3.780E+00	3.720E+00
-21.656	3.650E+00	3.600E+00
-21.655	3.520E+00	3.460E+00
-21.654	3.400E+00	3.340E+00
-21.653	3.260E+00	3.220E+00
-21.652	3.140E+00	3.100E+00
-21.651	3.030E+00	2.980E+00
-21.650	2.920E+00	2.870E+00
-21.649	2.800E+00	2.760E+00
-21.648	2.700E+00	2.660E+00
-21.647	2.590E+00	2.550E+00
-21.646	2.480E+00	2.450E+00
-21.645	2.380E+00	2.360E+00
-21.644	2.300E+00	2.260E+00
-21.643	2.200E+00	2.160E+00
-21.642	2.100E+00	2.080E+00
-21.641	2.020E+00	1.989E+00
-21.640	1.935E+00	1.907E+00
-21.639	1.853E+00	1.825E+00
-21.638	1.775E+00	1.747E+00
-21.637	1.697E+00	1.672E+00
-21.636	1.623E+00	1.599E+00
-21.635	1.552E+00	1.529E+00
-21.634	1.483E+00	1.461E+00
-21.633	1.417E+00	1.395E+00
-21.632	1.353E+00	1.332E+00
-21.631	1.291E+00	1.271E+00
-21.630	1.231E+00	1.212E+00
-21.629	1.174E+00	1.156E+00
-21.628	1.119E+00	1.102E+00
-21.627	1.066E+00	1.050E+00
-21.626	1.015E+00	1.000E+00
-21.625	9.660E-01	9.510E-01
-21.624	9.190E-01	9.050E-01
-21.623	8.740E-01	8.610E-01
-21.622	8.310E-01	8.180E-01
-21.621	7.900E-01	7.780E-01
-21.620	7.500E-01	7.380E-01
-21.619	7.120E-01	7.010E-01
-21.618	6.760E-01	6.660E-01
-21.617	6.410E-01	6.310E-01
-21.616	6.080E-01	5.980E-01
-21.615	5.760E-01	5.670E-01
-21.614	5.460E-01	5.380E-01
-21.613	5.160E-01	5.090E-01
-21.612	4.890E-01	4.820E-01
-21.611	4.620E-01	4.560E-01
-21.610	4.380E-01	4.310E-01
-21.609	4.140E-01	4.080E-01
-21.608	3.900E-01	3.850E-01
-21.607	3.690E-01	3.640E-01
-21.606	3.480E-01	3.430E-01
-21.605	3.280E-01	3.240E-01
-21.604	3.100E-01	3.060E-01
-21.603	2.920E-01	2.880E-01
-21.602	2.760E-01	2.720E-01
-21.601	2.600E-01	2.560E-01
-21.600	2.440E-01	2.400E-01
-21.599	2.300E-01	2.260E-01
-21.598	2.160E-01	2.140E-01
-21.597	2.040E-01	2.000E-01
-21.596	1.913E-01	1.885E-01
-21.595	1.797E-01	1.771E-01
-21.594	1.689E-01	1.663E-01
-21.593	1.585E-01	1.561E-01
-21.592	1.487E-01	1.465E-01
-21.591	1.395E-01	1.373E-01
-21.590	1.308E-01	1.288E-01
-21.589	1.225E-01	1.207E-01
-21.588	1.148E-01	1.131E-01
-21.587	1.075E-01	1.059E-01
-21.586	1.006E-01	9.910E-02
-21.585	9.410E-02	9.270E-02
-21.584	8.800E-02	8.670E-02
-21.583	8.230E-02	8.100E-02
-21.582	7.690E-02	7.570E-02
-21.581	7.180E-02	7.070E-02
-21.580	6.700E-02	6.600E-02
-21.579	6.250E-02	6.160E-02
-21.578	5.830E-02	5.740E-02
-21.577	5.440E-02	5.360E-02
-21.576	5.070E-02	4.990E-02
-21.575	4.720E-02	4.650E-02
-21.574	4.400E-02	4.330E-02
-21.573	4.090E-02	4.030E-02
-21.572	3.800E-02	3.750E-02
-21.571	3.540E-02	3.480E-02
-21.570	3.290E-02	3.240E-02
-21.569	3.060E-02	3.010E-02
-21.568	2.840E-02	2.800E-02
-21.567	2.640E-02	2.600E-02
-21.566	2.440E-02	2.400E-02
-21.565	2.260E-02	2.240E-02
-21.564	2.100E-02	2.070E-02
-21.563	1.948E-02	1.918E-02
-21.562	1.804E-02	1.777E-02
-21.561	1.671E-02	1.645E-02
-21.560	1.545E-02	1.523E-02
-21.559	1.431E-02	1.409E-02
-21.558	1.323E-02	1.303E-02
-21.557	1.223E-02	1.203E-02
-21.556	1.129E-02	1.112E-02
-21.555	1.043E-02	1.027E-02
-21.554	9.630E-03	9.480E-03
-21.553	8.880E-03	8.750E-03
-21.552	8.190E-03	8.070E-03
-21.551	7.550E-03	7.440E-03
-21.550	6.960E-03	6.850E-03
-21.549	6.410E-03	6.310E-03
-21.548	5.900E-03	5.810E-03
-21.547	5.430E-03	5.350E-03
-21.546	5.000E-03	4.920E-03
-21.545	4.590E-03	4.520E-03
-21.544	4.220E-03	4.160E-03
-21.543	3.880E-03	3.820E-03
-21.542	3.560E-03	3.510E-03
-21.541	3.270E-03	3.220E-03
-21.540	3.000E-03	2.960E-03
-21.539	2.750E-03	2.710E-03
-21.538	2.520E-03	2.480E-03
-21.537	2.310E-03	2.280E-03
-21.536	2.120E-03	2.080E-03
-21.535	1.938E-03	1.908E-03
-21.534	1.774E-03	1.747E-03
-21.533	1.623E-03	1.598E-03
-21.532	1.483E-03	1.461E-03
-21.531	1.355E-03	1.335E-03
-21.530	1.239E-03	1.219E-03
-21.529	1.131E-03	1.114E-03
-21.528	1.033E-03	1.017E-03
-21.527	9.420E-04	9.280E-04
-21.526	8.590E-04	8.460E-04
-21.525	7.830E-04	7.710E-04
-21.524	7.140E-04	7.030E-04
-21.523	6.500E-04	6.410E-04
-21.522	5.920E-04	5.830E-04
-21.521	5.390E-04	5.310E-04
-21.520	4.900E-04	4.830E-04
-21.519	4.460E-04	4.400E-04
-21.518	4.060E-04	4.000E-04
-21.517	3.690E-04	3.630E-04
-21.516	3.350E-04	3.300E-04
-21.515	3.040E-04	3.000E-04
-21.514	2.760E-04	2.720E-04
-21.513	2.520E-04	2.480E-04
-21.512	2.280E-04	2.240E-04
-21.511	2.080E-04	2.040E-04
-21.510	1.884E-04	1.855E-04
-21.509	1.712E-04	1.685E-04
-21.508	1.556E-04	1.532E-04
-21.507	1.415E-04	1.394E-04
-21.506	1.289E-04	1.269E-04
-21.505	1.175E-04	1.157E-04
-21.504	1.073E-04	1.056E-04
-21.503	9.810E-05	9.660E-05
-21.502	8.990E-05	8.850E-05
-21.501	8.270E-05	8.150E-05
-21.500	7.630E-05	7.520E-05
-21.499	7.080E-05	6.970E-05
-21.498	6.600E-05	6.500E-05
-21.497	6.190E-05	6.100E-05
-21.496	5.850E-05	5.760E-05
-21.495	5.570E-05	5.480E-05
-21.494	5.350E-05	5.260E-05
-21.493	5.190E-05	5.110E-05
-21.492	5.090E-05	5.010E-05
-21.491	5.040E-05	4.960E-05
-21.490	5.060E-05	4.980E-05
-21.489	5.120E-05	5.040E-05
-21.488	5.240E-05	5.160E-05
-21.487	5.430E-05	5.340E-05
-21.486	5.680E-05	5.580E-05
-21.485	5.980E-05	5.880E-05
-21.484	6.340E-05	6.240E-05
-21.483	6.780E-05	6.680E-05
-21.482	7.300E-05	7.180E-05
-21.481	7.880E-05	7.760E-05
-21.480	8.540E-05	8.400E-05
-21.479	9.300E-05	9.160E-05
-21.478	1.016E-04	1.000E-04
-21.477	1.110E-04	1.093E-04
-21.476	1.218E-04	1.198E-04
-21.475	1.336E-04	1.314E-04
-21.474	1.468E-04	1.444E-04
-21.473	1.614E-04	1.588E-04
-21.472	1.776E-04	1.746E-04
-21.471	1.954E-04	1.922E-04
-21.470	2.160E-04	2.120E-04
-21.469	2.360E-04	2.320E-04
-21.468	2.600E-04	2.560E-04
-21.467	2.860E-04	2.820E-04
-21.466	3.160E-04	3.100E-04
-21.465	3.480E-04	3.420E-04
-21.464	3.820E-04	3.760E-04
-21.463	4.200E-04	4.140E-04
-21.462	4.620E-04	4.540E-04
-21.461	5.080E-04	5.000E-04
-21.460	5.580E-04	5.500E-04
-21.459	6.120E-04	6.030E-04
-21.458	6.720E-04	6.620E-04
-21.457	7.380E-04	7.260E-04
-21.456	8.100E-04	7.980E-04
-21.455	8.880E-04	8.740E-04
-21.454	9.740E-04	9.580E-04
-21.453	1.067E-03	1.050E-03
-21.452	1.168E-03	1.150E-03
-21.451	1.280E-03	1.258E-03
-21.450	1.400E-03	1.378E-03
-21.449	1.532E-03	1.506E-03
-21.448	1.674E-03	1.648E-03
-21.447	1.830E-03	1.800E-03
-21.446	2.000E-03	1.967E-03
-21.445	2.180E-03	2.140E-03
-21.444	2.380E-03	2.340E-03
-21.443	2.600E-03	2.560E-03
-21.442	2.840E-03	2.780E-03
-21.441	3.100E-03	3.040E-03
-21.440	3.360E-03	3.320E-03
-21.439	3.660E-03	3.600E-03
-21.438	4.000E-03	3.930E-03
-21.437	4.340E-03	4.280E-03
-21.436	4.720E-03	4.660E-03
-21.435	5.140E-03	5.060E-03
-21.434	5.580E-03	5.500E-03
-21.433	6.080E-03	5.980E-03
-21.432	6.600E-03	6.480E-03
-21.431	7.160E-03	7.040E-03
-21.430	7.760E-03	7.640E-03
-21.429	8.420E-03	8.280E-03
-21.428	9.140E-03	8.980E-03
-21.427	9.900E-03	9.740E-03
-21.426	1.072E-02	1.054E-02
-21.425	1.160E-02	1.142E-02
-21.424	1.256E-02	1.236E-02
-21.423	1.358E-02	1.336E-02
-21.422	1.470E-02	1.446E-02
-21.421	1.588E-02	1.562E-02
-21.420	1.716E-02	1.688E-02
-21.419	1.853E-02	1.823E-02
-21.418	2.000E-02	1.968E-02
-21.417	2.160E-02	2.120E-02
-21.416	2.320E-02	2.300E-02
-21.415	2.500E-02	2.460E-02
-21.414	2.700E-02	2.660E-02
-21.413	2.920E-02	2.860E-02
-21.412	3.140E-02	3.080E-02
-21.411	3.380E-02	3.320E-02
-21.410	3.640E-02	3.580E-02
-21.409	3.900E-02	3.840E-02
-21.408	4.200E-02	4.140E-02
-21.407	4.520E-02	4.440E-02
-21.406	4.840E-02	4.760E-02
-21.405	5.200E-02	5.120E-02
-21.404	5.580E-02	5.500E-02
-21.403	5.980E-02	5.890E-02
-21.402	6.420E-02	6.320E-02
-21.401	6.880E-02	6.760E-02
-21.400	7.370E-02	7.260E-02
-21.399	7.900E-02	7.760E-02
-21.398	8.440E-02	8.310E-02
-21.397	9.040E-02	8.900E-02
-21.396	9.660E-02	9.500E-02
-21.395	1.034E-01	1.016E-01
-21.394	1.104E-01	1.086E-01
-21.393	1.180E-01	1.160E-01
-21.392	1.258E-01	1.238E-01
-21.391	1.344E-01	1.322E-01
-21.390	1.434E-01	1.410E-01
-21.389	1.528E-01	1.504E-01
-21.388	1.628E-01	1.602E-01
-21.387	1.736E-01	1.707E-01
-21.386	1.848E-01	1.818E-01
-21.385	1.967E-01	1.936E-01
-21.384	2.100E-01	2.060E-01
-21.383	2.220E-01	2.190E-01
-21.382	2.360E-01	2.320E-01
-21.381	2.520E-01	2.480E-01
-21.380	2.680E-01	2.620E-01
-21.379	2.840E-01	2.800E-01
-21.378	3.020E-01	2.960E-01
-21.377	3.200E-01	3.140E-01
-21.376	3.380E-01	3.340E-01
-21.375	3.580E-01	3.540E-01
-21.374	3.800E-01	3.740E-01
-21.373	4.020E-01	3.960E-01
-21.372	4.260E-01	4.200E-01
-21.371	4.520E-01	4.440E-01
-21.370	4.780E-01	4.700E-01
-21.369	5.040E-01	4.960E-01
-21.368	5.340E-01	5.240E-01
-21.367	5.640E-01	5.540E-01
-21.366	5.960E-01	5.860E-01
-21.365	6.280E-01	6.180E-01
-21.364	6.620E-01	6.520E-01
-21.363	7.000E-01	6.880E-01
-21.362	7.360E-01	7.260E-01
-21.361	7.760E-01	7.640E-01
-21.360	8.180E-01	8.040E-01
-21.359	8.620E-01	8.480E-01
-21.358	9.060E-01	8.920E-01
-21.357	9.540E-01	9.380E-01
-21.356	1.002E+00	9.860E-01
-21.355	1.054E+00	1.038E+00
-21.354	1.108E+00	1.090E+00
-21.353	1.164E+00	1.144E+00
-21.352	1.222E+00	1.202E+00
-21.351	1.282E+00	1.262E+00
-21.350	1.344E+00	1.322E+00
-21.349	1.410E+00	1.388E+00
-21.348	1.478E+00	1.454E+00
-21.347	1.548E+00	1.524E+00
-21.346	1.622E+00	1.596E+00
-21.345	1.698E+00	1.670E+00
-21.344	1.776E+00	1.748E+00
-21.343	1.858E+00	1.828E+00
-21.342	1.942E+00	1.910E+00
-21.341	2.020E+00	1.997E+00
-21.340	2.120E+00	2.080E+00
-21.339	2.220E+00	2.180E+00
-21.338	2.320E+00	2.280E+00
-21.337	2.420E+00	2.380E+00
-21.336	2.520E+00	2.480E+00
-21.335	2.620E+00	2.580E+00
-21.334	2.740E+00	2.680E+00
-21.333	2.840E+00	2.800E+00
-21.332	2.960E+00	2.920E+00
-21.331	3.080E+00	3.040E+00
-21.330	3.210E+00	3.160E+00
-21.329	3.340E+00	3.280E+00
-21.328	3.480E+00	3.420E+00
-21.327	3.600E+00	3.540E+00
-21.326	3.740E+00	3.680E+00
-21.325	3.890E+00	3.820E+00
-21.324	4.040E+00	3.980E+00
-21.323	4.180E+00	4.120E+00
-21.322	4.340E+00	4.280E+00
-21.321	4.500E+00	4.440E+00
-21.320	4.660E+00	4.600E+00
-21.319	4.840E+00	4.760E+00
-21.318	5.000E+00	4.920E+00
-21.317	5.180E+00	5.100E+00
-21.316	5.360E+00	5.280E+00
-21.315	5.540E+00	5.460E+00
-21.314	5.740E+00	5.640E+00
-21.313	5.920E+00	5.820E+00
-21.312	6.120E+00	6.020E+00
-21.311	6.320E+00	6.220E+00
-21.310	6.520E+00	6.420E+00
-21.309	6.720E+00	6.620E+00
-21.308	6.940E+00	6.820E+00
-21.307	7.160E+00	7.040E+00
-21.306	7.380E+00	7.260E+00
-21.305	7.600E+00	7.480E+00
-21.304	7.820E+00	7.700E+00
-21.303	8.060E+00	7.920E+00
-21.302	8.280E+00	8.160E+00
-21.301	8.520E+00	8.380E+00
-21.300	8.760E+00	8.620E+00
-21.299	9.000E+00	8.860E+00
-21.298	9.260E+00	9.100E+00
-21.297	9.500E+00	9.360E+00
-21.296	9.760E+00	9.600E+00
-21.295	1.002E+01	9.860E+00
-21.294	1.028E+01	1.010E+01
-21.293	1.054E+01	1.036E+01
-21.292	1.080E+01	1.062E+01
-21.291	1.108E+01	1.090E+01
-21.290	1.134E+01	1.116E+01
-21.289	1.162E+01	1.142E+01
-21.288	1.189E+01	1.170E+01
-21.287	1.216E+01	1.198E+01
-21.286	1.244E+01	1.224E+01
-21.285	1.272E+01	1.252E+01
-21.284	1.302E+01	1.280E+01
-21.283	1.330E+01	1.308E+01
-21.282	1.358E+01	1.336E+01
-21.281	1.386E+01	1.364E+01
-21.280	1.416E+01	1.392E+01
-21.279	1.444E+01	1.422E+01
-21.278	1.474E+01	1.450E+01
-21.277	1.502E+01	1.478E+01
-21.276	1.532E+01	1.508E+01
-21.275	1.562E+01	1.536E+01
-21.274	1.590E+01	1.564E+01
-21.273	1.620E+01	1.594E+01
-21.272	1.648E+01	1.622E+01
-21.271	1.678E+01	1.651E+01
-21.270	1.708E+01	1.680E+01
-21.269	1.736E+01	1.708E+01
-21.268	1.766E+01	1.737E+01
-21.267	1.794E+01	1.766E+01
-21.266	1.824E+01	1.794E+01
-21.265	1.852E+01	1.822E+01
-21.264	1.882E+01	1.850E+01
-21.263	1.910E+01	1.878E+01
-21.262	1.938E+01	1.906E+01
-21.261	1.966E+01	1.934E+01
-21.260	1.994E+01	1.962E+01
-21.259	2.020E+01	1.990E+01
-21.258	2.040E+01	2.020E+01
-21.257	2.080E+01	2.040E+01
-21.256	2.100E+01	2.080E+01
-21.255	2.140E+01	2.100E+01
-21.254	2.160E+01	2.120E+01
-21.253	2.180E+01	2.140E+01
-21.252	2.220E+01	2.180E+01
-21.251	2.240E+01	2.200E+01
-21.250	2.260E+01	2.220E+01
-21.249	2.280E+01	2.260E+01
-21.248	2.320E+01	2.280E+01
-21.247	2.340E+01	2.300E+01
-21.246	2.360E+01	2.320E+01
-21.245	2.380E+01	2.340E+01
-21.244	2.420E+01	2.380E+01
-21.243	2.440E+01	2.400E+01
-21.242	2.460E+01	2.420E+01
-21.241	2.480E+01	2.440E+01
-21.240	2.500E+01	2.460E+01
-21.239	2.520E+01	2.480E+01
-21.238	2.540E+01	2.500E+01
-21.237	2.560E+01	2.520E+01
-21.236	2.580E+01	2.540E+01
-21.235	2.600E+01	2.560E+01
-21.234	2.620E+01	2.580E+01
-21.233	2.640E+01	2.600E+01
-21.232	2.660E+01	2.620E+01
-21.231	2.680E+01	2.640E+01
-21.230	2.700E+01	2.660E+01
-21.229	2.720E+01	2.680E+01
-21.228	2.740E+01	2.700E+01
-21.227	2.760E+01	2.720E+01
-21.226	2.780E+01	2.740E+01
-21.225	2.800E+01	2.760E+01
-21.224	2.820E+01	2.760E+01
-21.223	2.820E+01	2.780E+01
-21.222	2.840E+01	2.800E+01
-21.221	2.860E+01	2.820E+01
-21.220	2.880E+01	2.840E+01
-21.219	2.900E+01	2.840E+01
-21.218	2.900E+01	2.860E+01
-21.217	2.920E+01	2.880E+01
-21.216	2.940E+01	2.880E+01
-21.215	2.960E+01	2.900E+01
-21.214	2.960E+01	2.920E+01
-21.213	2.980E+01	2.940E+01
-21.212	3.000E+01	2.940E+01
-21.211	3.000E+01	2.960E+01
-21.210	3.020E+01	2.960E+01
-21.209	3.040E+01	2.980E+01
-21.208	3.040E+01	3.000E+01
-21.207	3.060E+01	3.000E+01
-21.206	3.060E+01	3.020E+01
-21.205	3.080E+01	3.020E+01
-21.204	3.100E+01	3.040E+01
-21.203	3.100E+01	3.060E+01
-21.202	3.120E+01	3.060E+01
-21.201	3.120E+01	3.080E+01
-21.200	3.140E+01	3.080E+01
-21.199	3.140E+01	3.100E+01
-21.198	3.160E+01	3.100E+01
-21.197	3.160E+01	3.120E+01
-21.196	3.180E+01	3.120E+01
-21.195	3.180E+01	3.140E+01
-21.194	3.200E+01	3.140E+01
-21.193	3.200E+01	3.160E+01
-21.192	3.220E+01	3.160E+01
-21.191	3.220E+01	3.160E+01
-21.190	3.240E+01	3.180E+01
-21.189	3.240E+01	3.180E+01
-21.188	3.240E+01	3.200E+01
-21.187	3.260E+01	3.200E+01
-21.186	3.260E+01	3.220E+01
-21.185	3.280E+01	3.220E+01
-21.184	3.280E+01	3.220E+01
-21.183	3.280E+01	3.240E+01
-21.182	3.300E+01	3.240E+01
-21.181	3.300E+01	3.240E+01
-21.180	3.310E+01	3.260E+01
-21.179	3.320E+01	3.260E+01
-21.178	3.320E+01	3.260E+01
-21.177	3.340E+01	3.280E+01
-21.176	3.340E+01	3.280E+01
-21.175	3.340E+01	3.280E+01
-21.174	3.340E+01	3.300E+01
-21.173	3.360E+01	3.300E+01
-21.172	3.360E+01	3.300E+01
-21.171	3.360E+01	3.310E+01
-21.170	3.380E+01	3.320E+01
-21.169	3.380E+01	3.320E+01
-21.168	3.380E+01	3.320E+01
-21.167	3.380E+01	3.320E+01
-21.166	3.380E+01	3.340E+01
-21.165	3.400E+01	3.340E+01
-21.164	3.400E+01	3.340E+01
-21.163	3.400E+01	3.340E+01
-21.162	3.400E+01	3.340E+01
-21.161	3.400E+01	3.340E+01
-21.160	3.400E+01	3.360E+01
-21.159	3.420E+01	3.360E+01
-21.158	3.420E+01	3.360E+01
-21.157	3.420E+01	3.360E+01
-21.156	3.420E+01	3.360E+01
-21.155	3.420E+01	3.360E+01
-21.154	3.420E+01	3.360E+01
-21.153	3.420E+01	3.360E+01
-21.152	3.420E+01	3.360E+01
-21.151	3.420E+01	3.360E+01
-21.150	3.420E+01	3.360E+01
-21.149	3.420E+01	3.360E+01
-21.148	3.420E+01	3.360E+01
-21.147	3.420E+01	3.360E+01
-21.146	3.420E+01	3.360E+01
-21.145	3.420E+01	3.360E+01
-21.144	3.420E+01	3.360E+01
-21.143	3.420E+01	3.360E+01
-21.142	3.420E+01	3.360E+01
-21.141	3.400E+01	3.360E+01
-21.140	3.400E+01	3.340E+01
-21.139	3.400E+01	3.340E+01
-21.138	3.400E+01	3.340E+01
-21.137	3.400E+01	3.340E+01
-21.136	3.400E+01	3.340E+01
-21.135	3.380E+01	3.340E+01
-21.134	3.380E+01	3.320E+01
-21.133	3.380E+01	3.320E+01
-21.132	3.380E+01	3.320E+01
-21.131	3.360E+01	3.320E+01
-21.130	3.360E+01	3.300E+01
-21.129	3.360E+01	3.300E+01
-21.128	3.360E+01	3.300E+01
-21.127	3.340E+01	3.280E+01
-21.126	3.340E+01	3.280E+01
-21.125	3.340E+01	3.280E+01
-21.124	3.320E+01	3.280E+01
-21.123	3.320E+01	3.260E+01
-21.122	3.320E+01	3.260E+01
-21.121	3.300E+01	3.260E+01
-21.120	3.300E+01	3.240E+01
-21.119	3.300E+01	3.240E+01
-21.118	3.280E+01	3.220E+01
-21.117	3.280E+01	3.220E+01
-21.116	3.260E+01	3.220E+01
-21.115	3.260E+01	3.200E+01
-21.114	3.260E+01	3.200E+01
-21.113	3.240E+01	3.200E+01
-21.112	3.240E+01	3.180E+01
-21.111	3.240E+01	3.180E+01
-21.110	3.220E+01	3.160E+01
-21.109	3.220E+01	3.160E+01
-21.108	3.200E+01	3.160E+01
-21.107	3.200E+01	3.140E+01
-21.106	3.200E+01	3.140E+01
-21.105	3.180E+01	3.140E+01
-21.104	3.180E+01	3.120E+01
-21.103	3.160E+01	3.120E+01
-21.102	3.160E+01	3.100E+01
-21.101	3.160E+01	3.100E+01
-21.100	3.140E+01	3.100E+01
-21.099	3.140E+01	3.080E+01
-21.098	3.140E+01	3.080E+01
-21.097	3.120E+01	3.080E+01
-21.096	3.120E+01	3.060E+01
-21.095	3.120E+01	3.060E+01
-21.094	3.100E+01	3.060E+01
-21.093	3.100E+01	3.040E+01
-21.092	3.100E+01	3.040E+01
-21.091	3.080E+01	3.040E+01
-21.090	3.080E+01	3.020E+01
-21.089	3.080E+01	3.020E+01
-21.088	3.060E+01	3.020E+01
-21.087	3.060E+01	3.000E+01
-21.086	3.060E+01	3.000E+01
-21.085	3.040E+01	3.000E+01
-21.084	3.040E+01	3.000E+01
-21.083	3.040E+01	2.980E+01
-21.082	3.040E+01	2.980E+01
-21.081	3.020E+01	2.980E+01
-21.080	3.020E+01	2.980E+01
-21.079	3.020E+01	2.960E+01
-21.078	3.020E+01	2.960E+01
-21.077	3.020E+01	2.960E+01
-21.076	3.000E+01	2.960E+01
-21.075	3.000E+01	2.960E+01
-21.074	3.000E+01	2.940E+01
-21.073	3.000E+01	2.940E+01
-21.072	3.000E+01	2.940E+01
-21.071	2.980E+01	2.940E+01
-21.070	2.980E+01	2.940E+01
-21.069	2.980E+01	2.940E+01
-21.068	2.980E+01	2.920E+01
-21.067	2.980E+01	2.920E+01
-21.066	2.980E+01	2.920E+01
-21.065	2.980E+01	2.920E+01
-21.064	2.960E+01	2.920E+01
-21.063	2.960E+01	2.920E+01
-21.062	2.960E+01	2.920E+01
-21.061	2.960E+01	2.920E+01
-21.060	2.960E+01	2.920E+01
-21.059	2.960E+01	2.900E+01
-21.058	2.960E+01	2.900E+01
-21.057	2.960E+01	2.900E+01
-21.056	2.960E+01	2.900E+01
-21.055	2.960E+01	2.900E+01
-21.054	2.960E+01	2.900E+01
-21.053	2.960E+01	2.900E+01
-21.052	2.940E+01	2.900E+01
-21.051	2.940E+01	2.900E+01
-21.050	2.940E+01	2.900E+01
-21.049	2.940E+01	2.900E+01
-21.048	2.940E+01	2.900E+01
-21.047	2.940E+01	2.900E+01
-21.046	2.940E+01	2.900E+01
-21.045	2.940E+01	2.900E+01
-21.044	2.940E+01	2.900E+01
-21.043	2.940E+01	2.900E+01
-21.042	2.940E+01	2.900E+01
-21.041	2.940E+01	2.900E+01
-21.040	2.940E+01	2.900E+01
-21.039	2.940E+01	2.880E+01
-21.038	2.940E+01	2.880E+01
-21.037	2.940E+01	2.880E+01
-21.036	2.940E+01	2.880E+01
-21.035	2.940E+01	2.880E+01
-21.034	2.940E+01	2.880E+01
-21.033	2.940E+01	2.880E+01
-21.032	2.940E+01	2.880E+01
-21.031	2.940E+01	2.880E+01
-21.030	2.940E+01	2.880E+01
-21.029	2.940E+01	2.880E+01
-21.028	2.940E+01	2.880E+01
-21.027	2.940E+01	2.880E+01
-21.026	2.940E+01	2.880E+01
-21.025	2.940E+01	2.880E+01
-21.024	2.940E+01	2.880E+01
-21.023	2.940E+01	2.880E+01
-21.022	2.940E+01	2.880E+01
-21.021	2.940E+01	2.880E+01
-21.020	2.940E+01	2.880E+01
-21.019	2.940E+01	2.880E+01
-21.018	2.940E+01	2.880E+01
-21.017	2.940E+01	2.880E+01
-21.016	2.940E+01	2.880E+01
-21.015	2.940E+01	2.880E+01
-21.014	2.940E+01	2.880E+01
-21.013	2.940E+01	2.880E+01
-21.012	2.940E+01	2.880E+01
-21.011	2.940E+01	2.880E+01
-21.010	2.940E+01	2.880E+01
-21.009	2.940E+01	2.880E+01
-21.008	2.940E+01	2.880E+01
-21.007	2.940E+01	2.880E+01
-21.006	2.940E+01	2.880E+01
-21.005	2.940E+01	2.880E+01
-21.004	2.940E+01	2.880E+01
-21.003	2.940E+01	2.880E+01
-21.002	2.940E+01	2.880E+01
-21.001	2.940E+01	2.880E+01
-21.000	2.940E+01	2.880E+01
-20.999	2.940E+01	2.880E+01
-20.998	2.940E+01	2.880E+01
-20.997	2.940E+01	2.900E+01
-20.996	2.940E+01	2.900E+01
-20.995	2.940E+01	2.900E+01
-20.994	2.940E+01	2.900E+01
-20.993	2.940E+01	2.900E+01
-20.992	2.940E+01	2.900E+01
-20.991	2.940E+01	2.900E+01
-20.990	2.940E+01	2.900E+01
-20.989	2.960E+01	2.900E+01
-20.988	2.960E+01	2.900E+01
-20.987	2.960E+01	2.900E+01
-20.986	2.960E+01	2.900E+01
-20.985	2.960E+01	2.900E+01
-20.984	2.960E+01	2.920E+01
-20.983	2.960E+01	2.920E+01
-20.982	2.960E+01	2.920E+01
-20.981	2.960E+01	2.920E+01
-20.980	2.980E+01	2.920E+01
-20.979	2.980E+01	2.920E+01
-20.978	2.980E+01	2.920E+01
-20.977	2.980E+01	2.920E+01
-20.976	2.980E+01	2.940E+01
-20.975	2.980E+01	2.940E+01
-20.974	2.980E+01	2.940E+01
-20.973	3.000E+01	2.940E+01
-20.972	3.000E+01	2.940E+01
-20.971	3.000E+01	2.940E+01
-20.970	3.000E+01	2.960E+01
-20.969	3.000E+01	2.960E+01
-20.968	3.020E+01	2.960E+01
-20.967	3.020E+01	2.960E+01
-20.966	3.020E+01	2.960E+01
-20.965	3.020E+01	2.980E+01
-20.964	3.020E+01	2.980E+01
-20.963	3.020E+01	2.980E+01
-20.962	3.040E+01	2.980E+01
-20.961	3.040E+01	2.980E+01
-20.960	3.040E+01	2.980E+01
-20.959	3.040E+01	3.000E+01
-20.958	3.060E+01	3.000E+01
-20.957	3.060E+01	3.000E+01
-20.956	3.060E+01	3.000E+01
-20.955	3.060E+01	3.020E+01
-20.954	3.060E+01	3.020E+01
-20.953	3.080E+01	3.020E+01
-20.952	3.080E+01	3.020E+01
-20.951	3.080E+01	3.020E+01
-20.950	3.080E+01	3.040E+01
-20.949	3.080E+01	3.040E+01
-20.948	3.100E+01	3.040E+01
-20.947	3.100E+01	3.040E+01
-20.946	3.100E+01	3.040E+01
-20.945	3.100E+01	3.060E+01
-20.944	3.120E+01	3.060E+01
-20.943	3.120E+01	3.060E+01
-20.942	3.120E+01	3.060E+01
-20.941	3.120E+01	3.080E+01
-20.940	3.120E+01	3.080E+01
-20.939	3.140E+01	3.080E+01
-20.938	3.140E+01	3.080E+01
-20.937	3.140E+01	3.080E+01
-20.936	3.140E+01	3.100E+01
-20.935	3.140E+01	3.100E+01
-20.934	3.160E+01	3.100E+01
-20.933	3.160E+01	3.100E+01
-20.932	3.160E+01	3.100E+01
-20.931	3.160E+01	3.100E+01
-20.930	3.160E+01	3.120E+01
-20.929	3.180E+01	3.120E+01
-20.928	3.180E+01	3.120E+01
-20.927	3.180E+01	3.120E+01
-20.926	3.180E+01	3.120E+01
-20.925	3.180E+01	3.120E+01
-20.924	3.180E+01	3.140E+01
-20.923	3.180E+01	3.140E+01
-20.922	3.200E+01	3.140E+01
-20.921	3.200E+01	3.140E+01
-20.920	3.200E+01	3.140E+01
-20.919	3.200E+01	3.140E+01
-20.918	3.200E+01	3.140E+01
-20.917	3.200E+01	3.160E+01
-20.916	3.200E+01	3.160E+01
-20.915	3.200E+01	3.160E+01
-20.914	3.220E+01	3.160E+01
-20.913	3.220E+01	3.160E+01
-20.912	3.220E+01	3.160E+01
-20.911	3.220E+01	3.160E+01
-20.910	3.220E+01	3.160E+01
-20.909	3.220E+01	3.160E+01
-20.908	3.220E+01	3.160E+01
-20.907	3.220E+01	3.160E+01
-20.906	3.220E+01	3.160E+01
-20.905	3.220E+01	3.160E+01
-20.904	3.220E+01	3.160E+01
-20.903	3.220E+01	3.180E+01
-20.902	3.220E+01	3.180E+01
-20.901	3.220E+01	3.180E+01
-20.900	3.220E+01	3.180E+01
-20.899	3.220E+01	3.180E+01
-20.898	3.220E+01	3.180E+01
-20.897	3.220E+01	3.180E+01
-20.896	3.220E+01	3.180E+01
-20.895	3.220E+01	3.180E+01
-20.894	3.220E+01	3.180E+01
-20.893	3.220E+01	3.180E+01
-20.892	3.220E+01	3.180E+01
-20.891	3.220E+01	3.160E+01
-20.890	3.220E+01	3.160E+01
-20.889	3.220E+01	3.160E+01
-20.888	3.220E+01	3.160E+01
-20.887	3.220E+01	3.160E+01
-20.886	3.220E+01	3.160E+01
-20.885	3.220E+01	3.160E+01
-20.884	3.220E+01	3.160E+01
-20.883	3.220E+01	3.160E+01
-20.882	3.220E+01	3.160E+01
-20.881	3.220E+01	3.160E+01
-20.880	3.220E+01	3.160E+01
-20.879	3.200E+01	3.160E+01
-20.878	3.200E+01	3.160E+01
-20.877	3.200E+01	3.140E+01
-20.876	3.200E+01	3.140E+01
-20.875	3.200E+01	3.140E+01