# E (eV)  dos(E)    pdos(E)
 -21.943  0.201E-02  0.198E-02
 -21.942  0.220E-02  0.216E-02
 -21.941  0.240E-02  0.236E-02
 -21.940  0.262E-02  0.258E-02
 -21.939  0.285E-02  0.281E-02
 -21.938  0.311E-02  0.306E-02
 -21.937  0.339E-02  0.334E-02
 -21.936  0.369E-02  0.364E-02
 -21.935  0.402E-02  0.396E-02
 -21.934  0.437E-02  0.431E-02
 -21.933  0.476E-02  0.469E-02
 -21.932  0.517E-02  0.510E-02
 -21.931  0.562E-02  0.554E-02
 -21.930  0.611E-02  0.602E-02
 -21.929  0.664E-02  0.653E-02
 -21.928  0.720E-02  0.709E-02
 -21.927  0.781E-02  0.770E-02
 -21.926  0.848E-02  0.835E-02
 -21.925  0.919E-02  0.905E-02
 -21.924  0.996E-02  0.980E-02
 -21.923  0.108E-01  0.106E-01
 -21.922  0.117E-01  0.115E-01
 -21.921  0.126E-01  0.124E-01
 -21.920  0.137E-01  0.135E-01
 -21.919  0.148E-01  0.146E-01
 -21.918  0.160E-01  0.157E-01
 -21.917  0.173E-01  0.170E-01
 -21.916  0.186E-01  0.183E-01
 -21.915  0.201E-01  0.198E-01
 -21.914  0.217E-01  0.214E-01
 -21.913  0.234E-01  0.230E-01
 -21.912  0.252E-01  0.248E-01
 -21.911  0.272E-01  0.268E-01
 -21.910  0.293E-01  0.288E-01
 -21.909  0.315E-01  0.310E-01
 -21.908  0.339E-01  0.334E-01
 -21.907  0.365E-01  0.359E-01
 -21.906  0.392E-01  0.386E-01
 -21.905  0.422E-01  0.415E-01
 -21.904  0.453E-01  0.446E-01
 -21.903  0.486E-01  0.479E-01
 -21.902  0.522E-01  0.514E-01
 -21.901  0.560E-01  0.552E-01
 -21.900  0.601E-01  0.592E-01
 -21.899  0.644E-01  0.634E-01
 -21.898  0.690E-01  0.679E-01
 -21.897  0.739E-01  0.728E-01
 -21.896  0.791E-01  0.779E-01
 -21.895  0.847E-01  0.834E-01
 -21.894  0.905E-01  0.892E-01
 -21.893  0.968E-01  0.953E-01
 -21.892  0.103E+00  0.102E+00
 -21.891  0.111E+00  0.109E+00
 -21.890  0.118E+00  0.116E+00
 -21.889  0.126E+00  0.124E+00
 -21.888  0.134E+00  0.132E+00
 -21.887  0.143E+00  0.141E+00
 -21.886  0.153E+00  0.150E+00
 -21.885  0.163E+00  0.160E+00
 -21.884  0.173E+00  0.171E+00
 -21.883  0.185E+00  0.182E+00
 -21.882  0.196E+00  0.193E+00
 -21.881  0.209E+00  0.206E+00
 -21.880  0.222E+00  0.219E+00
 -21.879  0.236E+00  0.232E+00
 -21.878  0.251E+00  0.247E+00
 -21.877  0.266E+00  0.262E+00
 -21.876  0.283E+00  0.278E+00
 -21.875  0.300E+00  0.295E+00
 -21.874  0.318E+00  0.313E+00
 -21.873  0.337E+00  0.332E+00
 -21.872  0.357E+00  0.352E+00
 -21.871  0.378E+00  0.372E+00
 -21.870  0.400E+00  0.394E+00
 -21.869  0.423E+00  0.417E+00
 -21.868  0.448E+00  0.441E+00
 -21.867  0.474E+00  0.466E+00
 -21.866  0.500E+00  0.493E+00
 -21.865  0.529E+00  0.521E+00
 -21.864  0.558E+00  0.550E+00
 -21.863  0.589E+00  0.580E+00
 -21.862  0.621E+00  0.612E+00
 -21.861  0.655E+00  0.645E+00
 -21.860  0.691E+00  0.680E+00
 -21.859  0.728E+00  0.717E+00
 -21.858  0.766E+00  0.755E+00
 -21.857  0.807E+00  0.795E+00
 -21.856  0.849E+00  0.836E+00
 -21.855  0.893E+00  0.879E+00
 -21.854  0.939E+00  0.924E+00
 -21.853  0.986E+00  0.971E+00
 -21.852  0.104E+01  0.102E+01
 -21.851  0.109E+01  0.107E+01
 -21.850  0.114E+01  0.112E+01
 -21.849  0.120E+01  0.118E+01
 -21.848  0.126E+01  0.124E+01
 -21.847  0.132E+01  0.130E+01
 -21.846  0.138E+01  0.136E+01
 -21.845  0.144E+01  0.142E+01
 -21.844  0.151E+01  0.149E+01
 -21.843  0.158E+01  0.156E+01
 -21.842  0.165E+01  0.163E+01
 -21.841  0.173E+01  0.170E+01
 -21.840  0.181E+01  0.178E+01
 -21.839  0.189E+01  0.186E+01
 -21.838  0.197E+01  0.194E+01
 -21.837  0.206E+01  0.203E+01
 -21.836  0.215E+01  0.211E+01
 -21.835  0.224E+01  0.220E+01
 -21.834  0.233E+01  0.230E+01
 -21.833  0.243E+01  0.239E+01
 -21.832  0.253E+01  0.249E+01
 -21.831  0.263E+01  0.259E+01
 -21.830  0.274E+01  0.270E+01
 -21.829  0.285E+01  0.281E+01
 -21.828  0.296E+01  0.292E+01
 -21.827  0.308E+01  0.303E+01
 -21.826  0.320E+01  0.315E+01
 -21.825  0.332E+01  0.327E+01
 -21.824  0.344E+01  0.339E+01
 -21.823  0.357E+01  0.352E+01
 -21.822  0.371E+01  0.365E+01
 -21.821  0.384E+01  0.378E+01
 -21.820  0.398E+01  0.392E+01
 -21.819  0.412E+01  0.406E+01
 -21.818  0.426E+01  0.420E+01
 -21.817  0.441E+01  0.434E+01
 -21.816  0.456E+01  0.449E+01
 -21.815  0.472E+01  0.465E+01
 -21.814  0.487E+01  0.480E+01
 -21.813  0.503E+01  0.496E+01
 -21.812  0.520E+01  0.512E+01
 -21.811  0.536E+01  0.528E+01
 -21.810  0.553E+01  0.545E+01
 -21.809  0.570E+01  0.562E+01
 -21.808  0.588E+01  0.579E+01
 -21.807  0.606E+01  0.596E+01
 -21.806  0.624E+01  0.614E+01
 -21.805  0.642E+01  0.632E+01
 -21.804  0.660E+01  0.650E+01
 -21.803  0.679E+01  0.669E+01
 -21.802  0.698E+01  0.687E+01
 -21.801  0.717E+01  0.706E+01
 -21.800  0.737E+01  0.726E+01
 -21.799  0.756E+01  0.745E+01
 -21.798  0.776E+01  0.764E+01
 -21.797  0.796E+01  0.784E+01
 -21.796  0.816E+01  0.804E+01
 -21.795  0.836E+01  0.824E+01
 -21.794  0.857E+01  0.844E+01
 -21.793  0.877E+01  0.864E+01
 -21.792  0.898E+01  0.884E+01
 -21.791  0.919E+01  0.905E+01
 -21.790  0.940E+01  0.925E+01
 -21.789  0.960E+01  0.946E+01
 -21.788  0.981E+01  0.966E+01
 -21.787  0.100E+02  0.987E+01
 -21.786  0.102E+02  0.101E+02
 -21.785  0.104E+02  0.103E+02
 -21.784  0.106E+02  0.105E+02
 -21.783  0.109E+02  0.107E+02
 -21.782  0.111E+02  0.109E+02
 -21.781  0.113E+02  0.111E+02
 -21.780  0.115E+02  0.113E+02
 -21.779  0.117E+02  0.115E+02
 -21.778  0.119E+02  0.117E+02
 -21.777  0.121E+02  0.119E+02
 -21.776  0.123E+02  0.121E+02
 -21.775  0.125E+02  0.123E+02
 -21.774  0.127E+02  0.125E+02
 -21.773  0.129E+02  0.127E+02
 -21.772  0.131E+02  0.129E+02
 -21.771  0.132E+02  0.130E+02
 -21.770  0.134E+02  0.132E+02
 -21.769  0.136E+02  0.134E+02
 -21.768  0.138E+02  0.136E+02
 -21.767  0.140E+02  0.137E+02
 -21.766  0.141E+02  0.139E+02
 -21.765  0.143E+02  0.141E+02
 -21.764  0.144E+02  0.142E+02
 -21.763  0.146E+02  0.144E+02
 -21.762  0.148E+02  0.145E+02
 -21.761  0.149E+02  0.147E+02
 -21.760  0.150E+02  0.148E+02
 -21.759  0.152E+02  0.149E+02
 -21.758  0.153E+02  0.151E+02
 -21.757  0.154E+02  0.152E+02
 -21.756  0.155E+02  0.153E+02
 -21.755  0.157E+02  0.154E+02
 -21.754  0.158E+02  0.155E+02
 -21.753  0.159E+02  0.156E+02
 -21.752  0.160E+02  0.157E+02
 -21.751  0.161E+02  0.158E+02
 -21.750  0.161E+02  0.159E+02
 -21.749  0.162E+02  0.160E+02
 -21.748  0.163E+02  0.160E+02
 -21.747  0.163E+02  0.161E+02
 -21.746  0.164E+02  0.161E+02
 -21.745  0.164E+02  0.162E+02
 -21.744  0.165E+02  0.162E+02
 -21.743  0.165E+02  0.163E+02
 -21.742  0.165E+02  0.163E+02
 -21.741  0.166E+02  0.163E+02
 -21.740  0.166E+02  0.163E+02
 -21.739  0.166E+02  0.163E+02
 -21.738  0.166E+02  0.163E+02
 -21.737  0.166E+02  0.163E+02
 -21.736  0.166E+02  0.163E+02
 -21.735  0.165E+02  0.163E+02
 -21.734  0.165E+02  0.163E+02
 -21.733  0.165E+02  0.162E+02
 -21.732  0.164E+02  0.162E+02
 -21.731  0.164E+02  0.161E+02
 -21.730  0.163E+02  0.161E+02
 -21.729  0.163E+02  0.160E+02
 -21.728  0.162E+02  0.159E+02
 -21.727  0.161E+02  0.159E+02
 -21.726  0.160E+02  0.158E+02
 -21.725  0.159E+02  0.157E+02
 -21.724  0.158E+02  0.156E+02
 -21.723  0.157E+02  0.155E+02
 -21.722  0.156E+02  0.154E+02
 -21.721  0.155E+02  0.153E+02
 -21.720  0.154E+02  0.151E+02
 -21.719  0.153E+02  0.150E+02
 -21.718  0.151E+02  0.149E+02
 -21.717  0.150E+02  0.148E+02
 -21.716  0.148E+02  0.146E+02
 -21.715  0.147E+02  0.145E+02
 -21.714  0.145E+02  0.143E+02
 -21.713  0.144E+02  0.142E+02
 -21.712  0.142E+02  0.140E+02
 -21.711  0.141E+02  0.138E+02
 -21.710  0.139E+02  0.137E+02
 -21.709  0.137E+02  0.135E+02
 -21.708  0.135E+02  0.133E+02
 -21.707  0.133E+02  0.131E+02
 -21.706  0.132E+02  0.130E+02
 -21.705  0.130E+02  0.128E+02
 -21.704  0.128E+02  0.126E+02
 -21.703  0.126E+02  0.124E+02
 -21.702  0.124E+02  0.122E+02
 -21.701  0.122E+02  0.120E+02
 -21.700  0.120E+02  0.118E+02
 -21.699  0.118E+02  0.116E+02
 -21.698  0.116E+02  0.114E+02
 -21.697  0.114E+02  0.112E+02
 -21.696  0.112E+02  0.110E+02
 -21.695  0.110E+02  0.108E+02
 -21.694  0.108E+02  0.106E+02
 -21.693  0.106E+02  0.104E+02
 -21.692  0.104E+02  0.102E+02
 -21.691  0.101E+02  0.999E+01
 -21.690  0.993E+01  0.978E+01
 -21.689  0.972E+01  0.958E+01
 -21.688  0.951E+01  0.937E+01
 -21.687  0.931E+01  0.916E+01
 -21.686  0.910E+01  0.896E+01
 -21.685  0.889E+01  0.876E+01
 -21.684  0.869E+01  0.855E+01
 -21.683  0.848E+01  0.835E+01
 -21.682  0.828E+01  0.815E+01
 -21.681  0.808E+01  0.795E+01
 -21.680  0.787E+01  0.776E+01
 -21.679  0.768E+01  0.756E+01
 -21.678  0.748E+01  0.737E+01
 -21.677  0.728E+01  0.717E+01
 -21.676  0.709E+01  0.698E+01
 -21.675  0.690E+01  0.679E+01
 -21.674  0.671E+01  0.661E+01
 -21.673  0.652E+01  0.642E+01
 -21.672  0.634E+01  0.624E+01
 -21.671  0.616E+01  0.606E+01
 -21.670  0.598E+01  0.589E+01
 -21.669  0.580E+01  0.571E+01
 -21.668  0.563E+01  0.554E+01
 -21.667  0.546E+01  0.538E+01
 -21.666  0.529E+01  0.521E+01
 -21.665  0.513E+01  0.505E+01
 -21.664  0.496E+01  0.489E+01
 -21.663  0.481E+01  0.473E+01
 -21.662  0.465E+01  0.458E+01
 -21.661  0.450E+01  0.443E+01
 -21.660  0.435E+01  0.428E+01
 -21.659  0.420E+01  0.414E+01
 -21.658  0.406E+01  0.400E+01
 -21.657  0.392E+01  0.386E+01
 -21.656  0.378E+01  0.372E+01
 -21.655  0.365E+01  0.359E+01
 -21.654  0.352E+01  0.346E+01
 -21.653  0.339E+01  0.334E+01
 -21.652  0.327E+01  0.322E+01
 -21.651  0.315E+01  0.310E+01
 -21.650  0.303E+01  0.298E+01
 -21.649  0.291E+01  0.287E+01
 -21.648  0.280E+01  0.276E+01
 -21.647  0.269E+01  0.265E+01
 -21.646  0.259E+01  0.255E+01
 -21.645  0.249E+01  0.245E+01
 -21.644  0.239E+01  0.235E+01
 -21.643  0.229E+01  0.226E+01
 -21.642  0.220E+01  0.216E+01
 -21.641  0.211E+01  0.208E+01
 -21.640  0.202E+01  0.199E+01
 -21.639  0.194E+01  0.191E+01
 -21.638  0.185E+01  0.182E+01
 -21.637  0.177E+01  0.175E+01
 -21.636  0.170E+01  0.167E+01
 -21.635  0.162E+01  0.160E+01
 -21.634  0.155E+01  0.153E+01
 -21.633  0.148E+01  0.146E+01
 -21.632  0.142E+01  0.139E+01
 -21.631  0.135E+01  0.133E+01
 -21.630  0.129E+01  0.127E+01
 -21.629  0.123E+01  0.121E+01
 -21.628  0.117E+01  0.116E+01
 -21.627  0.112E+01  0.110E+01
 -21.626  0.107E+01  0.105E+01
 -21.625  0.101E+01  0.999E+00
 -21.624  0.966E+00  0.951E+00
 -21.623  0.919E+00  0.905E+00
 -21.622  0.874E+00  0.860E+00
 -21.621  0.831E+00  0.818E+00
 -21.620  0.789E+00  0.777E+00
 -21.619  0.750E+00  0.738E+00
 -21.618  0.712E+00  0.701E+00
 -21.617  0.675E+00  0.665E+00
 -21.616  0.641E+00  0.631E+00
 -21.615  0.607E+00  0.598E+00
 -21.614  0.576E+00  0.567E+00
 -21.613  0.545E+00  0.537E+00
 -21.612  0.516E+00  0.509E+00
 -21.611  0.489E+00  0.481E+00
 -21.610  0.462E+00  0.455E+00
 -21.609  0.437E+00  0.431E+00
 -21.608  0.413E+00  0.407E+00
 -21.607  0.391E+00  0.385E+00
 -21.606  0.369E+00  0.363E+00
 -21.605  0.348E+00  0.343E+00
 -21.604  0.329E+00  0.324E+00
 -21.603  0.310E+00  0.305E+00
 -21.602  0.292E+00  0.288E+00
 -21.601  0.275E+00  0.271E+00
 -21.600  0.259E+00  0.256E+00
 -21.599  0.244E+00  0.241E+00
 -21.598  0.230E+00  0.226E+00
 -21.597  0.216E+00  0.213E+00
 -21.596  0.203E+00  0.200E+00
 -21.595  0.191E+00  0.188E+00
 -21.594  0.180E+00  0.177E+00
 -21.593  0.169E+00  0.166E+00
 -21.592  0.158E+00  0.156E+00
 -21.591  0.149E+00  0.146E+00
 -21.590  0.139E+00  0.137E+00
 -21.589  0.131E+00  0.129E+00
 -21.588  0.122E+00  0.121E+00
 -21.587  0.115E+00  0.113E+00
 -21.586  0.107E+00  0.106E+00
 -21.585  0.101E+00  0.990E-01
 -21.584  0.941E-01  0.926E-01
 -21.583  0.880E-01  0.866E-01
 -21.582  0.822E-01  0.810E-01
 -21.581  0.768E-01  0.757E-01
 -21.580  0.718E-01  0.707E-01
 -21.579  0.670E-01  0.660E-01
 -21.578  0.625E-01  0.615E-01
 -21.577  0.583E-01  0.574E-01
 -21.576  0.543E-01  0.535E-01
 -21.575  0.506E-01  0.499E-01
 -21.574  0.472E-01  0.465E-01
 -21.573  0.439E-01  0.433E-01
 -21.572  0.409E-01  0.403E-01
 -21.571  0.380E-01  0.375E-01
 -21.570  0.354E-01  0.348E-01
 -21.569  0.329E-01  0.324E-01
 -21.568  0.305E-01  0.301E-01
 -21.567  0.284E-01  0.279E-01
 -21.566  0.263E-01  0.259E-01
 -21.565  0.244E-01  0.241E-01
 -21.564  0.227E-01  0.223E-01
 -21.563  0.210E-01  0.207E-01
 -21.562  0.195E-01  0.192E-01
 -21.561  0.180E-01  0.178E-01
 -21.560  0.167E-01  0.164E-01
 -21.559  0.154E-01  0.152E-01
 -21.558  0.143E-01  0.141E-01
 -21.557  0.132E-01  0.130E-01
 -21.556  0.122E-01  0.120E-01
 -21.555  0.113E-01  0.111E-01
 -21.554  0.104E-01  0.103E-01
 -21.553  0.962E-02  0.947E-02
 -21.552  0.888E-02  0.874E-02
 -21.551  0.819E-02  0.806E-02
 -21.550  0.755E-02  0.743E-02
 -21.549  0.695E-02  0.685E-02
 -21.548  0.640E-02  0.631E-02
 -21.547  0.590E-02  0.581E-02
 -21.546  0.543E-02  0.534E-02
 -21.545  0.499E-02  0.492E-02
 -21.544  0.459E-02  0.452E-02
 -21.543  0.422E-02  0.415E-02
 -21.542  0.388E-02  0.382E-02
 -21.541  0.356E-02  0.351E-02
 -21.540  0.327E-02  0.322E-02
 -21.539  0.300E-02  0.295E-02
 -21.538  0.275E-02  0.271E-02
 -21.537  0.252E-02  0.248E-02
 -21.536  0.231E-02  0.227E-02
 -21.535  0.212E-02  0.208E-02
 -21.534  0.194E-02  0.191E-02
 -21.533  0.177E-02  0.175E-02
 -21.532  0.162E-02  0.160E-02
 -21.531  0.148E-02  0.146E-02
 -21.530  0.135E-02  0.133E-02
 -21.529  0.124E-02  0.122E-02
 -21.528  0.113E-02  0.111E-02
 -21.527  0.103E-02  0.102E-02
 -21.526  0.941E-03  0.927E-03
 -21.525  0.859E-03  0.846E-03
 -21.524  0.783E-03  0.771E-03
 -21.523  0.713E-03  0.703E-03
 -21.522  0.650E-03  0.640E-03
 -21.521  0.592E-03  0.583E-03
 -21.520  0.539E-03  0.531E-03
 -21.519  0.490E-03  0.483E-03
 -21.518  0.446E-03  0.439E-03
 -21.517  0.405E-03  0.399E-03
 -21.516  0.369E-03  0.363E-03
 -21.515  0.335E-03  0.330E-03
 -21.514  0.304E-03  0.300E-03
 -21.513  0.277E-03  0.272E-03
 -21.512  0.251E-03  0.247E-03
 -21.511  0.228E-03  0.225E-03
 -21.510  0.207E-03  0.204E-03
 -21.509  0.188E-03  0.185E-03
 -21.508  0.171E-03  0.169E-03
 -21.507  0.156E-03  0.153E-03
 -21.506  0.142E-03  0.139E-03
 -21.505  0.129E-03  0.127E-03
 -21.504  0.118E-03  0.116E-03
 -21.503  0.107E-03  0.106E-03
 -21.502  0.983E-04  0.968E-04
 -21.501  0.902E-04  0.888E-04
 -21.500  0.830E-04  0.817E-04
 -21.499  0.767E-04  0.755E-04
 -21.498  0.712E-04  0.701E-04
 -21.497  0.664E-04  0.654E-04
 -21.496  0.624E-04  0.614E-04
 -21.495  0.590E-04  0.581E-04
 -21.494  0.563E-04  0.554E-04
 -21.493  0.541E-04  0.533E-04
 -21.492  0.526E-04  0.518E-04
 -21.491  0.517E-04  0.509E-04
 -21.490  0.514E-04  0.505E-04
 -21.489  0.516E-04  0.508E-04
 -21.488  0.524E-04  0.515E-04
 -21.487  0.537E-04  0.529E-04
 -21.486  0.557E-04  0.548E-04
 -21.485  0.583E-04  0.573E-04
 -21.484  0.615E-04  0.605E-04
 -21.483  0.653E-04  0.643E-04
 -21.482  0.699E-04  0.688E-04
 -21.481  0.752E-04  0.740E-04
 -21.480  0.813E-04  0.800E-04
 -21.479  0.883E-04  0.869E-04
 -21.478  0.962E-04  0.946E-04
 -21.477  0.105E-03  0.103E-03
 -21.476  0.115E-03  0.113E-03
 -21.475  0.126E-03  0.124E-03
 -21.474  0.138E-03  0.136E-03
 -21.473  0.152E-03  0.149E-03
 -21.472  0.167E-03  0.164E-03
 -21.471  0.184E-03  0.181E-03
 -21.470  0.202E-03  0.199E-03
 -21.469  0.223E-03  0.219E-03
 -21.468  0.245E-03  0.241E-03
 -21.467  0.270E-03  0.265E-03
 -21.466  0.297E-03  0.292E-03
 -21.465  0.327E-03  0.321E-03
 -21.464  0.359E-03  0.354E-03
 -21.463  0.395E-03  0.389E-03
 -21.462  0.435E-03  0.428E-03
 -21.461  0.478E-03  0.470E-03
 -21.460  0.525E-03  0.517E-03
 -21.459  0.577E-03  0.567E-03
 -21.458  0.633E-03  0.623E-03
 -21.457  0.695E-03  0.684E-03
 -21.456  0.763E-03  0.751E-03
 -21.455  0.837E-03  0.823E-03
 -21.454  0.918E-03  0.903E-03
 -21.453  0.101E-02  0.989E-03
 -21.452  0.110E-02  0.108E-02
 -21.451  0.121E-02  0.119E-02
 -21.450  0.132E-02  0.130E-02
 -21.449  0.144E-02  0.142E-02
 -21.448  0.158E-02  0.155E-02
 -21.447  0.173E-02  0.170E-02
 -21.446  0.189E-02  0.186E-02
 -21.445  0.206E-02  0.203E-02
 -21.444  0.225E-02  0.222E-02
 -21.443  0.246E-02  0.242E-02
 -21.442  0.268E-02  0.264E-02
 -21.441  0.292E-02  0.288E-02
 -21.440  0.319E-02  0.313E-02
 -21.439  0.347E-02  0.342E-02
 -21.438  0.378E-02  0.372E-02
 -21.437  0.412E-02  0.405E-02
 -21.436  0.448E-02  0.441E-02
 -21.435  0.487E-02  0.479E-02
 -21.434  0.530E-02  0.521E-02
 -21.433  0.575E-02  0.566E-02
 -21.432  0.625E-02  0.615E-02
 -21.431  0.679E-02  0.668E-02
 -21.430  0.737E-02  0.725E-02
 -21.429  0.799E-02  0.786E-02
 -21.428  0.867E-02  0.853E-02
 -21.427  0.939E-02  0.924E-02
 -21.426  0.102E-01  0.100E-01
 -21.425  0.110E-01  0.108E-01
 -21.424  0.119E-01  0.117E-01
 -21.423  0.129E-01  0.127E-01
 -21.422  0.140E-01  0.137E-01
 -21.421  0.151E-01  0.149E-01
 -21.420  0.163E-01  0.161E-01
 -21.419  0.176E-01  0.173E-01
 -21.418  0.190E-01  0.187E-01
 -21.417  0.205E-01  0.202E-01
 -21.416  0.222E-01  0.218E-01
 -21.415  0.239E-01  0.235E-01
 -21.414  0.258E-01  0.254E-01
 -21.413  0.278E-01  0.273E-01
 -21.412  0.299E-01  0.294E-01
 -21.411  0.322E-01  0.317E-01
 -21.410  0.346E-01  0.341E-01
 -21.409  0.373E-01  0.367E-01
 -21.408  0.401E-01  0.394E-01
 -21.407  0.431E-01  0.424E-01
 -21.406  0.463E-01  0.455E-01
 -21.405  0.497E-01  0.489E-01
 -21.404  0.533E-01  0.525E-01
 -21.403  0.572E-01  0.563E-01
 -21.402  0.614E-01  0.604E-01
 -21.401  0.658E-01  0.647E-01
 -21.400  0.705E-01  0.693E-01
 -21.399  0.755E-01  0.743E-01
 -21.398  0.808E-01  0.795E-01
 -21.397  0.865E-01  0.851E-01
 -21.396  0.925E-01  0.910E-01
 -21.395  0.990E-01  0.974E-01
 -21.394  0.106E+00  0.104E+00
 -21.393  0.113E+00  0.111E+00
 -21.392  0.121E+00  0.119E+00
 -21.391  0.129E+00  0.127E+00
 -21.390  0.137E+00  0.135E+00
 -21.389  0.147E+00  0.144E+00
 -21.388  0.156E+00  0.154E+00
 -21.387  0.167E+00  0.164E+00
 -21.386  0.177E+00  0.175E+00
 -21.385  0.189E+00  0.186E+00
 -21.384  0.201E+00  0.198E+00
 -21.383  0.214E+00  0.210E+00
 -21.382  0.227E+00  0.224E+00
 -21.381  0.242E+00  0.238E+00
 -21.380  0.257E+00  0.253E+00
 -21.379  0.273E+00  0.268E+00
 -21.378  0.290E+00  0.285E+00
 -21.377  0.307E+00  0.302E+00
 -21.376  0.326E+00  0.321E+00
 -21.375  0.346E+00  0.340E+00
 -21.374  0.366E+00  0.360E+00
 -21.373  0.388E+00  0.382E+00
 -21.372  0.411E+00  0.404E+00
 -21.371  0.435E+00  0.428E+00
 -21.370  0.460E+00  0.453E+00
 -21.369  0.487E+00  0.479E+00
 -21.368  0.515E+00  0.506E+00
 -21.367  0.544E+00  0.535E+00
 -21.366  0.575E+00  0.565E+00
 -21.365  0.607E+00  0.597E+00
 -21.364  0.640E+00  0.630E+00
 -21.363  0.675E+00  0.665E+00
 -21.362  0.712E+00  0.701E+00
 -21.361  0.751E+00  0.739E+00
 -21.360  0.791E+00  0.778E+00
 -21.359  0.833E+00  0.820E+00
 -21.358  0.877E+00  0.863E+00
 -21.357  0.923E+00  0.908E+00
 -21.356  0.971E+00  0.955E+00
 -21.355  0.102E+01  0.100E+01
 -21.354  0.107E+01  0.106E+01
 -21.353  0.113E+01  0.111E+01
 -21.352  0.118E+01  0.116E+01
 -21.351  0.124E+01  0.122E+01
 -21.350  0.130E+01  0.128E+01
 -21.349  0.137E+01  0.135E+01
 -21.348  0.143E+01  0.141E+01
 -21.347  0.150E+01  0.148E+01
 -21.346  0.157E+01  0.155E+01
 -21.345  0.165E+01  0.162E+01
 -21.344  0.172E+01  0.170E+01
 -21.343  0.180E+01  0.178E+01
 -21.342  0.189E+01  0.186E+01
 -21.341  0.197E+01  0.194E+01
 -21.340  0.206E+01  0.203E+01
 -21.339  0.215E+01  0.212E+01
 -21.338  0.225E+01  0.221E+01
 -21.337  0.235E+01  0.231E+01
 -21.336  0.245E+01  0.241E+01
 -21.335  0.255E+01  0.251E+01
 -21.334  0.266E+01  0.262E+01
 -21.333  0.277E+01  0.273E+01
 -21.332  0.289E+01  0.284E+01
 -21.331  0.301E+01  0.296E+01
 -21.330  0.313E+01  0.308E+01
 -21.329  0.326E+01  0.320E+01
 -21.328  0.338E+01  0.333E+01
 -21.327  0.352E+01  0.346E+01
 -21.326  0.366E+01  0.360E+01
 -21.325  0.380E+01  0.374E+01
 -21.324  0.394E+01  0.388E+01
 -21.323  0.409E+01  0.402E+01
 -21.322  0.424E+01  0.418E+01
 -21.321  0.440E+01  0.433E+01
 -21.320  0.456E+01  0.449E+01
 -21.319  0.473E+01  0.465E+01
 -21.318  0.489E+01  0.482E+01
 -21.317  0.507E+01  0.499E+01
 -21.316  0.524E+01  0.516E+01
 -21.315  0.543E+01  0.534E+01
 -21.314  0.561E+01  0.552E+01
 -21.313  0.580E+01  0.570E+01
 -21.312  0.599E+01  0.589E+01
 -21.311  0.619E+01  0.609E+01
 -21.310  0.639E+01  0.629E+01
 -21.309  0.659E+01  0.649E+01
 -21.308  0.680E+01  0.669E+01
 -21.307  0.702E+01  0.690E+01
 -21.306  0.723E+01  0.711E+01
 -21.305  0.745E+01  0.733E+01
 -21.304  0.768E+01  0.755E+01
 -21.303  0.790E+01  0.778E+01
 -21.302  0.814E+01  0.800E+01
 -21.301  0.837E+01  0.823E+01
 -21.300  0.861E+01  0.847E+01
 -21.299  0.885E+01  0.871E+01
 -21.298  0.910E+01  0.895E+01
 -21.297  0.934E+01  0.919E+01
 -21.296  0.960E+01  0.944E+01
 -21.295  0.985E+01  0.969E+01
 -21.294  0.101E+02  0.995E+01
 -21.293  0.104E+02  0.102E+02
 -21.292  0.106E+02  0.105E+02
 -21.291  0.109E+02  0.107E+02
 -21.290  0.112E+02  0.110E+02
 -21.289  0.114E+02  0.113E+02
 -21.288  0.117E+02  0.115E+02
 -21.287  0.120E+02  0.118E+02
 -21.286  0.123E+02  0.121E+02
 -21.285  0.125E+02  0.123E+02
 -21.284  0.128E+02  0.126E+02
 -21.283  0.131E+02  0.129E+02
 -21.282  0.134E+02  0.132E+02
 -21.281  0.137E+02  0.135E+02
 -21.280  0.140E+02  0.137E+02
 -21.279  0.143E+02  0.140E+02
 -21.278  0.146E+02  0.143E+02
 -21.277  0.148E+02  0.146E+02
 -21.276  0.151E+02  0.149E+02
 -21.275  0.154E+02  0.152E+02
 -21.274  0.157E+02  0.155E+02
 -21.273  0.160E+02  0.158E+02
 -21.272  0.163E+02  0.160E+02
 -21.271  0.166E+02  0.163E+02
 -21.270  0.169E+02  0.166E+02
 -21.269  0.172E+02  0.169E+02
 -21.268  0.175E+02  0.172E+02
 -21.267  0.178E+02  0.175E+02
 -21.266  0.181E+02  0.178E+02
 -21.265  0.183E+02  0.180E+02
 -21.264  0.186E+02  0.183E+02
 -21.263  0.189E+02  0.186E+02
 -21.262  0.192E+02  0.189E+02
 -21.261  0.195E+02  0.192E+02
 -21.260  0.198E+02  0.194E+02
 -21.259  0.200E+02  0.197E+02
 -21.258  0.203E+02  0.200E+02
 -21.257  0.206E+02  0.203E+02
 -21.256  0.209E+02  0.205E+02
 -21.255  0.211E+02  0.208E+02
 -21.254  0.214E+02  0.211E+02
 -21.253  0.217E+02  0.213E+02
 -21.252  0.219E+02  0.216E+02
 -21.251  0.222E+02  0.218E+02
 -21.250  0.225E+02  0.221E+02
 -21.249  0.227E+02  0.224E+02
 -21.248  0.230E+02  0.226E+02
 -21.247  0.232E+02  0.228E+02
 -21.246  0.235E+02  0.231E+02
 -21.245  0.237E+02  0.233E+02
 -21.244  0.240E+02  0.236E+02
 -21.243  0.242E+02  0.238E+02
 -21.242  0.244E+02  0.240E+02
 -21.241  0.247E+02  0.243E+02
 -21.240  0.249E+02  0.245E+02
 -21.239  0.251E+02  0.247E+02
 -21.238  0.253E+02  0.249E+02
 -21.237  0.255E+02  0.251E+02
 -21.236  0.258E+02  0.253E+02
 -21.235  0.260E+02  0.255E+02
 -21.234  0.262E+02  0.257E+02
 -21.233  0.264E+02  0.259E+02
 -21.232  0.266E+02  0.261E+02
 -21.231  0.268E+02  0.263E+02
 -21.230  0.270E+02  0.265E+02
 -21.229  0.271E+02  0.267E+02
 -21.228  0.273E+02  0.269E+02
 -21.227  0.275E+02  0.271E+02
 -21.226  0.277E+02  0.272E+02
 -21.225  0.279E+02  0.274E+02
 -21.224  0.280E+02  0.276E+02
 -21.223  0.282E+02  0.277E+02
 -21.222  0.284E+02  0.279E+02
 -21.221  0.285E+02  0.281E+02
 -21.220  0.287E+02  0.282E+02
 -21.219  0.288E+02  0.284E+02
 -21.218  0.290E+02  0.285E+02
 -21.217  0.291E+02  0.287E+02
 -21.216  0.293E+02  0.288E+02
 -21.215  0.294E+02  0.290E+02
 -21.214  0.296E+02  0.291E+02
 -21.213  0.297E+02  0.292E+02
 -21.212  0.299E+02  0.294E+02
 -21.211  0.300E+02  0.295E+02
 -21.210  0.301E+02  0.296E+02
 -21.209  0.302E+02  0.297E+02
 -21.208  0.304E+02  0.299E+02
 -21.207  0.305E+02  0.300E+02
 -21.206  0.306E+02  0.301E+02
 -21.205  0.307E+02  0.302E+02
 -21.204  0.308E+02  0.303E+02
 -21.203  0.310E+02  0.305E+02
 -21.202  0.311E+02  0.306E+02
 -21.201  0.312E+02  0.307E+02
 -21.200  0.313E+02  0.308E+02
 -21.199  0.314E+02  0.309E+02
 -21.198  0.315E+02  0.310E+02
 -21.197  0.316E+02  0.311E+02
 -21.196  0.317E+02  0.312E+02
 -21.195  0.318E+02  0.313E+02
 -21.194  0.319E+02  0.314E+02
 -21.193  0.320E+02  0.315E+02
 -21.192  0.321E+02  0.316E+02
 -21.191  0.322E+02  0.317E+02
 -21.190  0.323E+02  0.317E+02
 -21.189  0.324E+02  0.318E+02
 -21.188  0.324E+02  0.319E+02
 -21.187  0.325E+02  0.320E+02
 -21.186  0.326E+02  0.321E+02
 -21.185  0.327E+02  0.322E+02
 -21.184  0.328E+02  0.322E+02
 -21.183  0.328E+02  0.323E+02
 -21.182  0.329E+02  0.324E+02
 -21.181  0.330E+02  0.325E+02
 -21.180  0.331E+02  0.325E+02
 -21.179  0.331E+02  0.326E+02
 -21.178  0.332E+02  0.327E+02
 -21.177  0.333E+02  0.327E+02
 -21.176  0.333E+02  0.328E+02
 -21.175  0.334E+02  0.329E+02
 -21.174  0.335E+02  0.329E+02
 -21.173  0.335E+02  0.330E+02
 -21.172  0.336E+02  0.330E+02
 -21.171  0.336E+02  0.331E+02
 -21.170  0.337E+02  0.331E+02
 -21.169  0.337E+02  0.332E+02
 -21.168  0.338E+02  0.332E+02
 -21.167  0.338E+02  0.333E+02
 -21.166  0.339E+02  0.333E+02
 -21.165  0.339E+02  0.334E+02
 -21.164  0.340E+02  0.334E+02
 -21.163  0.340E+02  0.334E+02
 -21.162  0.340E+02  0.335E+02
 -21.161  0.341E+02  0.335E+02
 -21.160  0.341E+02  0.335E+02
 -21.159  0.341E+02  0.335E+02
 -21.158  0.341E+02  0.336E+02
 -21.157  0.342E+02  0.336E+02
 -21.156  0.342E+02  0.336E+02
 -21.155  0.342E+02  0.336E+02
 -21.154  0.342E+02  0.336E+02
 -21.153  0.342E+02  0.336E+02
 -21.152  0.342E+02  0.336E+02
 -21.151  0.342E+02  0.337E+02
 -21.150  0.342E+02  0.337E+02
 -21.149  0.342E+02  0.337E+02
 -21.148  0.342E+02  0.336E+02
 -21.147  0.342E+02  0.336E+02
 -21.146  0.342E+02  0.336E+02
 -21.145  0.342E+02  0.336E+02
 -21.144  0.342E+02  0.336E+02
 -21.143  0.341E+02  0.336E+02
 -21.142  0.341E+02  0.336E+02
 -21.141  0.341E+02  0.335E+02
 -21.140  0.341E+02  0.335E+02
 -21.139  0.340E+02  0.335E+02
 -21.138  0.340E+02  0.334E+02
 -21.137  0.340E+02  0.334E+02
 -21.136  0.339E+02  0.334E+02
 -21.135  0.339E+02  0.333E+02
 -21.134  0.338E+02  0.333E+02
 -21.133  0.338E+02  0.332E+02
 -21.132  0.338E+02  0.332E+02
 -21.131  0.337E+02  0.331E+02
 -21.130  0.337E+02  0.331E+02
 -21.129  0.336E+02  0.330E+02
 -21.128  0.335E+02  0.330E+02
 -21.127  0.335E+02  0.329E+02
 -21.126  0.334E+02  0.329E+02
 -21.125  0.334E+02  0.328E+02
 -21.124  0.333E+02  0.327E+02
 -21.123  0.332E+02  0.327E+02
 -21.122  0.332E+02  0.326E+02
 -21.121  0.331E+02  0.325E+02
 -21.120  0.330E+02  0.325E+02
 -21.119  0.330E+02  0.324E+02
 -21.118  0.329E+02  0.323E+02
 -21.117  0.328E+02  0.323E+02
 -21.116  0.327E+02  0.322E+02
 -21.115  0.327E+02  0.321E+02
 -21.114  0.326E+02  0.320E+02
 -21.113  0.325E+02  0.320E+02
 -21.112  0.324E+02  0.319E+02
 -21.111  0.323E+02  0.318E+02
 -21.110  0.323E+02  0.317E+02
 -21.109  0.322E+02  0.317E+02
 -21.108  0.321E+02  0.316E+02
 -21.107  0.320E+02  0.315E+02
 -21.106  0.320E+02  0.314E+02
 -21.105  0.319E+02  0.313E+02
 -21.104  0.318E+02  0.313E+02
 -21.103  0.317E+02  0.312E+02
 -21.102  0.316E+02  0.311E+02
 -21.101  0.316E+02  0.310E+02
 -21.100  0.315E+02  0.310E+02
 -21.099  0.314E+02  0.309E+02
 -21.098  0.314E+02  0.308E+02
 -21.097  0.313E+02  0.308E+02
 -21.096  0.312E+02  0.307E+02
 -21.095  0.311E+02  0.306E+02
 -21.094  0.311E+02  0.306E+02
 -21.093  0.310E+02  0.305E+02
 -21.092  0.309E+02  0.304E+02
 -21.091  0.309E+02  0.304E+02
 -21.090  0.308E+02  0.303E+02
 -21.089  0.307E+02  0.302E+02
 -21.088  0.307E+02  0.302E+02
 -21.087  0.306E+02  0.301E+02
 -21.086  0.306E+02  0.301E+02
 -21.085  0.305E+02  0.300E+02
 -21.084  0.305E+02  0.299E+02
 -21.083  0.304E+02  0.299E+02
 -21.082  0.303E+02  0.298E+02
 -21.081  0.303E+02  0.298E+02
 -21.080  0.303E+02  0.297E+02
 -21.079  0.302E+02  0.297E+02
 -21.078  0.302E+02  0.297E+02
 -21.077  0.301E+02  0.296E+02
 -21.076  0.301E+02  0.296E+02
 -21.075  0.300E+02  0.295E+02
 -21.074  0.300E+02  0.295E+02
 -21.073  0.300E+02  0.295E+02
 -21.072  0.299E+02  0.294E+02
 -21.071  0.299E+02  0.294E+02
 -21.070  0.299E+02  0.294E+02
 -21.069  0.298E+02  0.293E+02
 -21.068  0.298E+02  0.293E+02
 -21.067  0.298E+02  0.293E+02
 -21.066  0.297E+02  0.292E+02
 -21.065  0.297E+02  0.292E+02
 -21.064  0.297E+02  0.292E+02
 -21.063  0.297E+02  0.292E+02
 -21.062  0.297E+02  0.292E+02
 -21.061  0.296E+02  0.291E+02
 -21.060  0.296E+02  0.291E+02
 -21.059  0.296E+02  0.291E+02
 -21.058  0.296E+02  0.291E+02
 -21.057  0.296E+02  0.291E+02
 -21.056  0.295E+02  0.290E+02
 -21.055  0.295E+02  0.290E+02
 -21.054  0.295E+02  0.290E+02
 -21.053  0.295E+02  0.290E+02
 -21.052  0.295E+02  0.290E+02
 -21.051  0.295E+02  0.290E+02
 -21.050  0.295E+02  0.290E+02
 -21.049  0.295E+02  0.290E+02
 -21.048  0.295E+02  0.290E+02
 -21.047  0.294E+02  0.289E+02
 -21.046  0.294E+02  0.289E+02
 -21.045  0.294E+02  0.289E+02
 -21.044  0.294E+02  0.289E+02
 -21.043  0.294E+02  0.289E+02
 -21.042  0.294E+02  0.289E+02
 -21.041  0.294E+02  0.289E+02
 -21.040  0.294E+02  0.289E+02
 -21.039  0.294E+02  0.289E+02
 -21.038  0.294E+02  0.289E+02
 -21.037  0.294E+02  0.289E+02
 -21.036  0.294E+02  0.289E+02
 -21.035  0.294E+02  0.289E+02
 -21.034  0.294E+02  0.289E+02
 -21.033  0.294E+02  0.289E+02
 -21.032  0.294E+02  0.289E+02
 -21.031  0.294E+02  0.289E+02
 -21.030  0.293E+02  0.289E+02
 -21.029  0.293E+02  0.289E+02
 -21.028  0.293E+02  0.288E+02
 -21.027  0.293E+02  0.288E+02
 -21.026  0.293E+02  0.288E+02
 -21.025  0.293E+02  0.288E+02
 -21.024  0.293E+02  0.288E+02
 -21.023  0.293E+02  0.288E+02
 -21.022  0.293E+02  0.288E+02
 -21.021  0.293E+02  0.288E+02
 -21.020  0.293E+02  0.288E+02
 -21.019  0.293E+02  0.288E+02
 -21.018  0.293E+02  0.288E+02
 -21.017  0.293E+02  0.288E+02
 -21.016  0.293E+02  0.288E+02
 -21.015  0.293E+02  0.288E+02
 -21.014  0.293E+02  0.288E+02
 -21.013  0.293E+02  0.288E+02
 -21.012  0.293E+02  0.288E+02
 -21.011  0.293E+02  0.288E+02
 -21.010  0.293E+02  0.288E+02
 -21.009  0.293E+02  0.288E+02
 -21.008  0.293E+02  0.288E+02
 -21.007  0.293E+02  0.288E+02
 -21.006  0.293E+02  0.288E+02
 -21.005  0.293E+02  0.288E+02
 -21.004  0.293E+02  0.288E+02
 -21.003  0.293E+02  0.288E+02
 -21.002  0.293E+02  0.289E+02
 -21.001  0.294E+02  0.289E+02
 -21.000  0.294E+02  0.289E+02
 -20.999  0.294E+02  0.289E+02
 -20.998  0.294E+02  0.289E+02
 -20.997  0.294E+02  0.289E+02
 -20.996  0.294E+02  0.289E+02
 -20.995  0.294E+02  0.289E+02
 -20.994  0.294E+02  0.289E+02
 -20.993  0.294E+02  0.289E+02
 -20.992  0.295E+02  0.290E+02
 -20.991  0.295E+02  0.290E+02
 -20.990  0.295E+02  0.290E+02
 -20.989  0.295E+02  0.290E+02
 -20.988  0.295E+02  0.290E+02
 -20.987  0.295E+02  0.290E+02
 -20.986  0.296E+02  0.291E+02
 -20.985  0.296E+02  0.291E+02
 -20.984  0.296E+02  0.291E+02
 -20.983  0.296E+02  0.291E+02
 -20.982  0.296E+02  0.291E+02
 -20.981  0.297E+02  0.292E+02
 -20.980  0.297E+02  0.292E+02
 -20.979  0.297E+02  0.292E+02
 -20.978  0.298E+02  0.292E+02