#E (eV) 	dos(e)	pdos(E)
-21.739	0.000E+00	0.000E+00
-21.738	0.000E+00	0.000E+00
-21.737	0.000E+00	0.000E+00
-21.736	0.000E+00	0.000E+00
-21.735	0.000E+00	0.000E+00
-21.734	0.000E+00	0.000E+00
-21.733	0.000E+00	0.000E+00
-21.732	0.000E+00	0.000E+00
-21.731	0.000E+00	0.000E+00
-21.730	0.000E+00	0.000E+00
-21.729	0.000E+00	0.000E+00
-21.728	0.000E+00	0.000E+00
-21.727	0.000E+00	0.000E+00
-21.726	0.000E+00	0.000E+00
-21.725	0.000E+00	0.000E+00
-21.724	0.000E+00	0.000E+00
-21.723	0.000E+00	0.000E+00
-21.722	0.000E+00	0.000E+00
-21.721	0.000E+00	0.000E+00
-21.720	0.000E+00	0.000E+00
-21.719	0.000E+00	0.000E+00
-21.718	0.000E+00	0.000E+00
-21.717	0.000E+00	0.000E+00
-21.716	0.000E+00	0.000E+00
-21.715	0.000E+00	0.000E+00
-21.714	0.000E+00	0.000E+00
-21.713	0.000E+00	0.000E+00
-21.712	0.000E+00	0.000E+00
-21.711	0.000E+00	0.000E+00
-21.710	0.000E+00	0.000E+00
-21.709	0.000E+00	0.000E+00
-21.708	0.000E+00	0.000E+00
-21.707	0.000E+00	0.000E+00
-21.706	0.000E+00	0.000E+00
-21.705	0.000E+00	0.000E+00
-21.704	0.000E+00	0.000E+00
-21.703	0.000E+00	0.000E+00
-21.702	0.000E+00	0.000E+00
-21.701	0.000E+00	0.000E+00
-21.700	0.000E+00	0.000E+00
-21.699	0.000E+00	0.000E+00
-21.698	0.000E+00	0.000E+00
-21.697	0.000E+00	0.000E+00
-21.696	0.000E+00	0.000E+00
-21.695	0.000E+00	0.000E+00
-21.694	0.000E+00	0.000E+00
-21.693	0.000E+00	0.000E+00
-21.692	0.000E+00	0.000E+00
-21.691	0.000E+00	0.000E+00
-21.690	0.000E+00	0.000E+00
-21.689	0.000E+00	0.000E+00
-21.688	0.000E+00	0.000E+00
-21.687	0.000E+00	0.000E+00
-21.686	0.000E+00	0.000E+00
-21.685	0.000E+00	0.000E+00
-21.684	0.000E+00	0.000E+00
-21.683	0.000E+00	0.000E+00
-21.682	0.000E+00	0.000E+00
-21.681	0.000E+00	0.000E+00
-21.680	0.000E+00	0.000E+00
-21.679	0.000E+00	0.000E+00
-21.678	0.000E+00	0.000E+00
-21.677	0.000E+00	0.000E+00
-21.676	0.000E+00	0.000E+00
-21.675	0.000E+00	0.000E+00
-21.674	0.000E+00	0.000E+00
-21.673	0.000E+00	0.000E+00
-21.672	0.000E+00	0.000E+00
-21.671	0.000E+00	0.000E+00
-21.670	0.000E+00	0.000E+00
-21.669	0.000E+00	0.000E+00
-21.668	0.000E+00	0.000E+00
-21.667	0.000E+00	0.000E+00
-21.666	0.000E+00	0.000E+00
-21.665	0.000E+00	0.000E+00
-21.664	0.000E+00	0.000E+00
-21.663	0.000E+00	0.000E+00
-21.662	0.000E+00	0.000E+00
-21.661	0.000E+00	0.000E+00
-21.660	0.000E+00	0.000E+00
-21.659	0.000E+00	0.000E+00
-21.658	0.000E+00	0.000E+00
-21.657	0.000E+00	0.000E+00
-21.656	0.000E+00	0.000E+00
-21.655	0.000E+00	0.000E+00
-21.654	0.000E+00	0.000E+00
-21.653	0.000E+00	0.000E+00
-21.652	0.000E+00	0.000E+00
-21.651	0.000E+00	0.000E+00
-21.650	0.000E+00	0.000E+00
-21.649	0.000E+00	0.000E+00
-21.648	0.000E+00	0.000E+00
-21.647	0.000E+00	0.000E+00
-21.646	0.000E+00	0.000E+00
-21.645	0.000E+00	0.000E+00
-21.644	0.000E+00	0.000E+00
-21.643	0.000E+00	0.000E+00
-21.642	0.000E+00	0.000E+00
-21.641	0.000E+00	0.000E+00
-21.640	0.000E+00	0.000E+00
-21.639	0.000E+00	0.000E+00
-21.638	0.000E+00	0.000E+00
-21.637	0.000E+00	0.000E+00
-21.636	0.000E+00	0.000E+00
-21.635	0.000E+00	0.000E+00
-21.634	0.000E+00	0.000E+00
-21.633	0.000E+00	0.000E+00
-21.632	0.000E+00	0.000E+00
-21.631	0.000E+00	0.000E+00
-21.630	0.000E+00	0.000E+00
-21.629	0.000E+00	0.000E+00
-21.628	0.000E+00	0.000E+00
-21.627	0.000E+00	0.000E+00
-21.626	0.000E+00	0.000E+00
-21.625	0.000E+00	0.000E+00
-21.624	0.000E+00	0.000E+00
-21.623	0.000E+00	0.000E+00
-21.622	0.000E+00	0.000E+00
-21.621	0.000E+00	0.000E+00
-21.620	0.000E+00	0.000E+00
-21.619	0.000E+00	0.000E+00
-21.618	0.000E+00	0.000E+00
-21.617	0.000E+00	0.000E+00
-21.616	0.000E+00	0.000E+00
-21.615	0.000E+00	0.000E+00
-21.614	0.000E+00	0.000E+00
-21.613	0.000E+00	0.000E+00
-21.612	0.000E+00	0.000E+00
-21.611	0.000E+00	0.000E+00
-21.610	0.000E+00	0.000E+00
-21.609	0.000E+00	0.000E+00
-21.608	0.000E+00	0.000E+00
-21.607	0.000E+00	0.000E+00
-21.606	0.000E+00	0.000E+00
-21.605	0.000E+00	0.000E+00
-21.604	0.000E+00	0.000E+00
-21.603	0.000E+00	0.000E+00
-21.602	0.000E+00	0.000E+00
-21.601	0.000E+00	0.000E+00
-21.600	0.000E+00	0.000E+00
-21.599	0.000E+00	0.000E+00
-21.598	0.000E+00	0.000E+00
-21.597	0.000E+00	0.000E+00
-21.596	0.000E+00	0.000E+00
-21.595	0.000E+00	0.000E+00
-21.594	0.000E+00	0.000E+00
-21.593	0.000E+00	0.000E+00
-21.592	0.000E+00	0.000E+00
-21.591	0.000E+00	0.000E+00
-21.590	0.000E+00	0.000E+00
-21.589	0.000E+00	0.000E+00
-21.588	0.000E+00	0.000E+00
-21.587	0.000E+00	0.000E+00
-21.586	0.000E+00	0.000E+00
-21.585	0.000E+00	0.000E+00
-21.584	0.000E+00	0.000E+00
-21.583	0.000E+00	0.000E+00
-21.582	0.000E+00	0.000E+00
-21.581	0.000E+00	0.000E+00
-21.580	0.000E+00	0.000E+00
-21.579	0.000E+00	0.000E+00
-21.578	0.000E+00	0.000E+00
-21.577	0.000E+00	0.000E+00
-21.576	0.000E+00	0.000E+00
-21.575	0.000E+00	0.000E+00
-21.574	0.000E+00	0.000E+00
-21.573	0.000E+00	0.000E+00
-21.572	0.000E+00	0.000E+00
-21.571	0.000E+00	0.000E+00
-21.570	0.000E+00	0.000E+00
-21.569	0.000E+00	0.000E+00
-21.568	0.000E+00	0.000E+00
-21.567	0.000E+00	0.000E+00
-21.566	0.000E+00	0.000E+00
-21.565	0.000E+00	0.000E+00
-21.564	0.000E+00	0.000E+00
-21.563	0.000E+00	0.000E+00
-21.562	0.000E+00	0.000E+00
-21.561	0.000E+00	0.000E+00
-21.560	0.000E+00	0.000E+00
-21.559	0.000E+00	0.000E+00
-21.558	0.000E+00	0.000E+00
-21.557	0.000E+00	0.000E+00
-21.556	0.000E+00	0.000E+00
-21.555	0.000E+00	0.000E+00
-21.554	0.000E+00	0.000E+00
-21.553	0.000E+00	0.000E+00
-21.552	0.000E+00	0.000E+00
-21.551	0.000E+00	0.000E+00
-21.550	0.000E+00	0.000E+00
-21.549	0.000E+00	0.000E+00
-21.548	0.000E+00	0.000E+00
-21.547	0.000E+00	0.000E+00
-21.546	0.000E+00	0.000E+00
-21.545	0.000E+00	0.000E+00
-21.544	0.000E+00	0.000E+00
-21.543	0.000E+00	0.000E+00
-21.542	0.000E+00	0.000E+00
-21.541	0.000E+00	0.000E+00
-21.540	0.000E+00	0.000E+00
-21.539	0.000E+00	0.000E+00
-21.538	0.000E+00	0.000E+00
-21.537	0.000E+00	0.000E+00
-21.536	0.000E+00	0.000E+00
-21.535	0.000E+00	0.000E+00
-21.534	0.000E+00	0.000E+00
-21.533	0.000E+00	0.000E+00
-21.532	0.000E+00	0.000E+00
-21.531	0.000E+00	0.000E+00
-21.530	0.000E+00	0.000E+00
-21.529	0.000E+00	0.000E+00
-21.528	0.000E+00	0.000E+00
-21.527	0.000E+00	0.000E+00
-21.526	0.000E+00	0.000E+00
-21.525	0.000E+00	0.000E+00
-21.524	0.000E+00	0.000E+00
-21.523	0.000E+00	0.000E+00
-21.522	0.000E+00	0.000E+00
-21.521	0.000E+00	0.000E+00
-21.520	0.000E+00	0.000E+00
-21.519	0.000E+00	0.000E+00
-21.518	0.000E+00	0.000E+00
-21.517	0.000E+00	0.000E+00
-21.516	0.000E+00	0.000E+00
-21.515	0.000E+00	0.000E+00
-21.514	0.000E+00	0.000E+00
-21.513	0.000E+00	0.000E+00
-21.512	0.000E+00	0.000E+00
-21.511	0.000E+00	0.000E+00
-21.510	0.000E+00	0.000E+00
-21.509	0.000E+00	0.000E+00
-21.508	0.000E+00	0.000E+00
-21.507	0.000E+00	0.000E+00
-21.506	0.000E+00	0.000E+00
-21.505	0.000E+00	0.000E+00
-21.504	0.000E+00	0.000E+00
-21.503	0.000E+00	0.000E+00
-21.502	0.000E+00	0.000E+00
-21.501	0.000E+00	0.000E+00
-21.500	0.000E+00	0.000E+00
-21.499	0.000E+00	0.000E+00
-21.498	0.000E+00	0.000E+00
-21.497	0.000E+00	0.000E+00
-21.496	0.000E+00	0.000E+00
-21.495	0.000E+00	0.000E+00
-21.494	0.000E+00	0.000E+00
-21.493	0.000E+00	0.000E+00
-21.492	0.000E+00	0.000E+00
-21.491	0.000E+00	0.000E+00
-21.490	0.000E+00	0.000E+00
-21.489	0.000E+00	0.000E+00
-21.488	0.000E+00	0.000E+00
-21.487	0.000E+00	0.000E+00
-21.486	0.000E+00	0.000E+00
-21.485	0.000E+00	0.000E+00
-21.484	0.000E+00	0.000E+00
-21.483	0.000E+00	0.000E+00
-21.482	0.000E+00	0.000E+00
-21.481	0.000E+00	0.000E+00
-21.480	0.000E+00	0.000E+00
-21.479	0.000E+00	0.000E+00
-21.478	0.000E+00	0.000E+00
-21.477	0.000E+00	0.000E+00
-21.476	0.000E+00	0.000E+00
-21.475	0.000E+00	0.000E+00
-21.474	0.000E+00	0.000E+00
-21.473	0.000E+00	0.000E+00
-21.472	0.000E+00	0.000E+00
-21.471	0.000E+00	0.000E+00
-21.470	0.000E+00	0.000E+00
-21.469	0.000E+00	0.000E+00
-21.468	0.000E+00	0.000E+00
-21.467	0.000E+00	0.000E+00
-21.466	0.000E+00	0.000E+00
-21.465	0.000E+00	0.000E+00
-21.464	0.000E+00	0.000E+00
-21.463	0.000E+00	0.000E+00
-21.462	0.000E+00	0.000E+00
-21.461	0.000E+00	0.000E+00
-21.460	0.000E+00	0.000E+00
-21.459	0.000E+00	0.000E+00
-21.458	0.000E+00	0.000E+00
-21.457	0.000E+00	0.000E+00
-21.456	0.000E+00	0.000E+00
-21.455	0.000E+00	0.000E+00
-21.454	0.000E+00	0.000E+00
-21.453	0.000E+00	0.000E+00
-21.452	0.000E+00	0.000E+00
-21.451	0.000E+00	0.000E+00
-21.450	0.000E+00	0.000E+00
-21.449	0.000E+00	0.000E+00
-21.448	0.000E+00	0.000E+00
-21.447	0.000E+00	0.000E+00
-21.446	0.000E+00	0.000E+00
-21.445	0.000E+00	0.000E+00
-21.444	0.000E+00	0.000E+00
-21.443	0.000E+00	0.000E+00
-21.442	0.000E+00	0.000E+00
-21.441	0.000E+00	0.000E+00
-21.440	0.000E+00	0.000E+00
-21.439	0.000E+00	0.000E+00
-21.438	0.000E+00	0.000E+00
-21.437	0.000E+00	0.000E+00
-21.436	0.000E+00	0.000E+00
-21.435	0.000E+00	0.000E+00
-21.434	0.000E+00	0.000E+00
-21.433	0.000E+00	0.000E+00
-21.432	0.000E+00	0.000E+00
-21.431	0.000E+00	0.000E+00
-21.430	0.000E+00	0.000E+00
-21.429	0.000E+00	0.000E+00
-21.428	0.000E+00	0.000E+00
-21.427	0.000E+00	0.000E+00
-21.426	0.000E+00	0.000E+00
-21.425	0.000E+00	0.000E+00
-21.424	0.000E+00	0.000E+00
-21.423	0.000E+00	0.000E+00
-21.422	0.000E+00	0.000E+00
-21.421	0.000E+00	0.000E+00
-21.420	0.000E+00	0.000E+00
-21.419	0.000E+00	0.000E+00
-21.418	0.000E+00	0.000E+00
-21.417	0.000E+00	0.000E+00
-21.416	0.000E+00	0.000E+00
-21.415	0.000E+00	0.000E+00
-21.414	0.000E+00	0.000E+00
-21.413	0.000E+00	0.000E+00
-21.412	0.000E+00	0.000E+00
-21.411	0.000E+00	0.000E+00
-21.410	0.000E+00	0.000E+00
-21.409	0.000E+00	0.000E+00
-21.408	0.000E+00	0.000E+00
-21.407	0.000E+00	0.000E+00
-21.406	0.000E+00	0.000E+00
-21.405	0.000E+00	0.000E+00
-21.404	0.000E+00	0.000E+00
-21.403	0.000E+00	0.000E+00
-21.402	0.000E+00	0.000E+00
-21.401	0.000E+00	0.000E+00
-21.400	0.000E+00	0.000E+00
-21.399	0.000E+00	0.000E+00
-21.398	0.000E+00	0.000E+00
-21.397	0.000E+00	0.000E+00
-21.396	0.000E+00	0.000E+00
-21.395	0.000E+00	0.000E+00
-21.394	0.000E+00	0.000E+00
-21.393	0.000E+00	0.000E+00
-21.392	0.000E+00	0.000E+00
-21.391	0.000E+00	0.000E+00
-21.390	0.000E+00	0.000E+00
-21.389	0.000E+00	0.000E+00
-21.388	0.000E+00	0.000E+00
-21.387	0.000E+00	0.000E+00
-21.386	0.000E+00	0.000E+00
-21.385	0.000E+00	0.000E+00
-21.384	0.000E+00	0.000E+00
-21.383	0.000E+00	0.000E+00
-21.382	0.000E+00	0.000E+00
-21.381	0.000E+00	0.000E+00
-21.380	0.000E+00	0.000E+00
-21.379	0.000E+00	0.000E+00
-21.378	0.000E+00	0.000E+00
-21.377	0.000E+00	0.000E+00
-21.376	0.000E+00	0.000E+00
-21.375	0.000E+00	0.000E+00
-21.374	0.000E+00	0.000E+00
-21.373	0.000E+00	0.000E+00
-21.372	0.000E+00	0.000E+00
-21.371	0.000E+00	0.000E+00
-21.370	0.000E+00	0.000E+00
-21.369	0.000E+00	0.000E+00
-21.368	0.000E+00	0.000E+00
-21.367	0.000E+00	0.000E+00
-21.366	0.000E+00	0.000E+00
-21.365	0.000E+00	0.000E+00
-21.364	0.000E+00	0.000E+00
-21.363	0.000E+00	0.000E+00
-21.362	0.000E+00	0.000E+00
-21.361	0.000E+00	0.000E+00
-21.360	0.000E+00	0.000E+00
-21.359	0.000E+00	0.000E+00
-21.358	0.000E+00	0.000E+00
-21.357	0.000E+00	0.000E+00
-21.356	0.000E+00	0.000E+00
-21.355	0.000E+00	0.000E+00
-21.354	0.000E+00	0.000E+00
-21.353	0.000E+00	0.000E+00
-21.352	0.000E+00	0.000E+00
-21.351	0.000E+00	0.000E+00
-21.350	0.000E+00	0.000E+00
-21.349	0.000E+00	0.000E+00
-21.348	0.000E+00	0.000E+00
-21.347	0.000E+00	0.000E+00
-21.346	0.000E+00	0.000E+00
-21.345	0.000E+00	0.000E+00
-21.344	0.000E+00	0.000E+00
-21.343	0.000E+00	0.000E+00
-21.342	0.000E+00	0.000E+00
-21.341	0.000E+00	0.000E+00
-21.340	0.000E+00	0.000E+00
-21.339	0.000E+00	0.000E+00
-21.338	0.000E+00	0.000E+00
-21.337	0.000E+00	0.000E+00
-21.336	0.000E+00	0.000E+00
-21.335	0.000E+00	0.000E+00
-21.334	0.000E+00	0.000E+00
-21.333	0.000E+00	0.000E+00
-21.332	0.000E+00	0.000E+00
-21.331	0.000E+00	0.000E+00
-21.330	0.000E+00	0.000E+00
-21.329	0.000E+00	0.000E+00
-21.328	0.000E+00	0.000E+00
-21.327	0.000E+00	0.000E+00
-21.326	0.000E+00	0.000E+00
-21.325	0.000E+00	0.000E+00
-21.324	0.000E+00	0.000E+00
-21.323	0.000E+00	0.000E+00
-21.322	0.000E+00	0.000E+00
-21.321	0.000E+00	0.000E+00
-21.320	0.000E+00	0.000E+00
-21.319	0.000E+00	0.000E+00
-21.318	0.000E+00	0.000E+00
-21.317	0.000E+00	0.000E+00
-21.316	0.000E+00	0.000E+00
-21.315	0.000E+00	0.000E+00
-21.314	0.000E+00	0.000E+00
-21.313	0.000E+00	0.000E+00
-21.312	0.000E+00	0.000E+00
-21.311	0.000E+00	0.000E+00
-21.310	0.000E+00	0.000E+00
-21.309	0.000E+00	0.000E+00
-21.308	0.000E+00	0.000E+00
-21.307	0.000E+00	0.000E+00
-21.306	0.000E+00	0.000E+00
-21.305	0.000E+00	0.000E+00
-21.304	0.000E+00	0.000E+00
-21.303	0.000E+00	0.000E+00
-21.302	0.000E+00	0.000E+00
-21.301	0.000E+00	0.000E+00
-21.300	0.000E+00	0.000E+00
-21.299	0.000E+00	0.000E+00
-21.298	0.000E+00	0.000E+00
-21.297	0.000E+00	0.000E+00
-21.296	0.000E+00	0.000E+00
-21.295	0.000E+00	0.000E+00
-21.294	0.000E+00	0.000E+00
-21.293	0.000E+00	0.000E+00
-21.292	0.000E+00	0.000E+00
-21.291	0.000E+00	0.000E+00
-21.290	0.000E+00	0.000E+00
-21.289	0.000E+00	0.000E+00
-21.288	0.000E+00	0.000E+00
-21.287	0.000E+00	0.000E+00
-21.286	0.000E+00	0.000E+00
-21.285	0.000E+00	0.000E+00
-21.284	0.000E+00	0.000E+00
-21.283	0.000E+00	0.000E+00
-21.282	0.000E+00	0.000E+00
-21.281	0.000E+00	0.000E+00
-21.280	0.000E+00	0.000E+00
-21.279	0.000E+00	0.000E+00
-21.278	0.000E+00	0.000E+00
-21.277	0.000E+00	0.000E+00
-21.276	0.000E+00	0.000E+00
-21.275	0.000E+00	0.000E+00
-21.274	0.000E+00	0.000E+00
-21.273	0.000E+00	0.000E+00
-21.272	0.000E+00	0.000E+00
-21.271	0.000E+00	0.000E+00
-21.270	0.000E+00	0.000E+00
-21.269	0.000E+00	0.000E+00
-21.268	0.000E+00	0.000E+00
-21.267	0.000E+00	0.000E+00
-21.266	0.000E+00	0.000E+00
-21.265	0.000E+00	0.000E+00
-21.264	0.000E+00	0.000E+00
-21.263	0.000E+00	0.000E+00
-21.262	0.000E+00	0.000E+00
-21.261	0.000E+00	0.000E+00
-21.260	0.000E+00	0.000E+00
-21.259	0.000E+00	0.000E+00
-21.258	0.000E+00	0.000E+00
-21.257	0.000E+00	0.000E+00
-21.256	0.000E+00	0.000E+00
-21.255	0.000E+00	0.000E+00
-21.254	0.000E+00	0.000E+00
-21.253	0.000E+00	0.000E+00
-21.252	0.000E+00	0.000E+00
-21.251	0.000E+00	0.000E+00
-21.250	0.000E+00	0.000E+00
-21.249	0.000E+00	0.000E+00
-21.248	0.000E+00	0.000E+00
-21.247	0.000E+00	0.000E+00
-21.246	0.000E+00	0.000E+00
-21.245	0.000E+00	0.000E+00
-21.244	3.580E+02	3.520E+02
-21.243	2.530E+02	2.480E+02
-21.242	1.948E+02	1.916E+02
-21.241	2.520E+02	2.480E+02
-21.240	2.260E+02	2.220E+02
-21.239	1.224E+02	1.204E+02
-21.238	1.087E+02	1.070E+02
-21.237	8.980E+01	8.840E+01
-21.236	5.740E+01	5.650E+01
-21.235	4.940E+01	4.860E+01
-21.234	4.560E+01	4.480E+01
-21.233	4.180E+01	4.100E+01
-21.232	3.800E+01	3.740E+01
-21.231	3.420E+01	3.360E+01
-21.230	1.670E+01	1.642E+01
-21.229	1.460E+01	1.436E+01
-21.228	1.250E+01	1.230E+01
-21.227	1.040E+01	1.024E+01
-21.226	8.320E+00	8.180E+00
-21.225	6.220E+00	6.120E+00
-21.224	4.120E+00	4.060E+00
-21.223	2.030E+00	1.998E+00
-21.222	0.000E+00	0.000E+00
-21.221	2.330E-01	2.290E-01
-21.220	1.397E+00	1.375E+00
-21.219	2.560E+00	2.520E+00
-21.218	3.720E+00	3.660E+00
-21.217	4.890E+00	4.810E+00
-21.216	6.060E+00	5.960E+00
-21.215	7.220E+00	7.100E+00
-21.214	8.380E+00	8.240E+00
-21.213	9.540E+00	9.390E+00
-21.212	1.071E+01	1.054E+01
-21.211	1.188E+01	1.168E+01
-21.210	1.304E+01	1.282E+01
-21.209	1.546E+01	1.522E+01
-21.208	1.608E+01	1.582E+01
-21.207	1.668E+01	1.640E+01
-21.206	1.728E+01	1.700E+01
-21.205	1.788E+01	1.760E+01
-21.204	1.848E+01	1.818E+01
-21.203	1.910E+01	1.878E+01
-21.202	1.970E+01	1.938E+01
-21.201	2.020E+01	1.996E+01
-21.200	2.100E+01	2.060E+01
-21.199	2.160E+01	2.120E+01
-21.198	2.220E+01	2.180E+01
-21.197	2.280E+01	2.240E+01
-21.196	2.360E+01	2.320E+01
-21.195	2.420E+01	2.380E+01
-21.194	2.500E+01	2.460E+01
-21.193	2.540E+01	2.500E+01
-21.192	2.600E+01	2.540E+01
-21.191	2.640E+01	2.600E+01
-21.190	2.680E+01	2.640E+01
-21.189	2.740E+01	2.680E+01
-21.188	2.780E+01	2.740E+01
-21.187	2.820E+01	2.780E+01
-21.186	2.880E+01	2.820E+01
-21.185	2.920E+01	2.880E+01
-21.184	2.960E+01	2.920E+01
-21.183	3.460E+01	3.420E+01
-21.182	3.600E+01	3.540E+01
-21.181	3.740E+01	3.680E+01
-21.180	3.860E+01	3.800E+01
-21.179	4.000E+01	3.920E+01
-21.178	4.120E+01	4.060E+01
-21.177	4.260E+01	4.180E+01
-21.176	4.320E+01	4.260E+01
-21.175	4.360E+01	4.300E+01
-21.174	4.020E+01	3.960E+01
-21.173	3.610E+01	3.560E+01
-21.172	3.200E+01	3.140E+01
-21.171	2.920E+01	2.880E+01
-21.170	2.860E+01	2.800E+01
-21.169	2.780E+01	2.720E+01
-21.168	2.700E+01	2.660E+01
-21.167	2.620E+01	2.580E+01
-21.166	2.560E+01	2.520E+01
-21.165	2.500E+01	2.460E+01
-21.164	2.400E+01	2.360E+01
-21.163	2.260E+01	2.220E+01
-21.162	2.120E+01	2.100E+01
-21.161	2.080E+01	2.040E+01
-21.160	2.040E+01	1.996E+01
-21.159	1.988E+01	1.956E+01
-21.158	1.946E+01	1.914E+01
-21.157	1.904E+01	1.872E+01
-21.156	1.862E+01	1.832E+01
-21.155	1.820E+01	1.790E+01
-21.154	1.778E+01	1.750E+01
-21.153	2.000E+01	1.969E+01
-21.152	3.160E+01	3.110E+01
-21.151	3.660E+01	3.600E+01
-21.150	4.020E+01	3.940E+01
-21.149	4.460E+01	4.380E+01
-21.148	4.820E+01	4.740E+01
-21.147	5.080E+01	5.000E+01
-21.146	5.280E+01	5.200E+01
-21.145	5.500E+01	5.400E+01
-21.144	5.700E+01	5.620E+01
-21.143	5.920E+01	5.820E+01
-21.142	5.800E+01	5.700E+01
-21.141	5.860E+01	5.760E+01
-21.140	5.900E+01	5.800E+01
-21.139	6.060E+01	5.960E+01
-21.138	6.220E+01	6.120E+01
-21.137	6.380E+01	6.280E+01
-21.136	6.560E+01	6.440E+01
-21.135	6.740E+01	6.620E+01
-21.134	7.520E+01	7.380E+01
-21.133	8.160E+01	8.020E+01
-21.132	8.700E+01	8.540E+01
-21.131	9.220E+01	9.060E+01
-21.130	9.740E+01	9.580E+01
-21.129	1.408E+02	1.385E+02
-21.128	1.170E+02	1.150E+02
-21.127	9.740E+01	9.580E+01
-21.126	8.420E+01	8.280E+01
-21.125	9.360E+01	9.200E+01
-21.124	1.070E+02	1.052E+02
-21.123	7.360E+01	7.240E+01
-21.122	4.980E+01	4.900E+01
-21.121	3.180E+01	3.120E+01
-21.120	2.800E+01	2.740E+01
-21.119	2.680E+01	2.620E+01
-21.118	3.000E+01	2.960E+01
-21.117	3.340E+01	3.280E+01
-21.116	3.750E+01	3.680E+01
-21.115	2.720E+01	2.680E+01
-21.114	1.688E+01	1.661E+01
-21.113	6.580E+00	6.470E+00
-21.112	0.000E+00	0.000E+00
-21.111	0.000E+00	0.000E+00
-21.110	0.000E+00	0.000E+00
-21.109	0.000E+00	0.000E+00
-21.108	0.000E+00	0.000E+00
-21.107	0.000E+00	0.000E+00
-21.106	0.000E+00	0.000E+00
-21.105	0.000E+00	0.000E+00
-21.104	0.000E+00	0.000E+00
-21.103	0.000E+00	0.000E+00
-21.102	0.000E+00	0.000E+00
-21.101	0.000E+00	0.000E+00
-21.100	0.000E+00	0.000E+00
-21.099	0.000E+00	0.000E+00
-21.098	0.000E+00	0.000E+00
-21.097	0.000E+00	0.000E+00
-21.096	0.000E+00	0.000E+00
-21.095	0.000E+00	0.000E+00
-21.094	0.000E+00	0.000E+00
-21.093	0.000E+00	0.000E+00
-21.092	0.000E+00	0.000E+00
-21.091	0.000E+00	0.000E+00
-21.090	0.000E+00	0.000E+00
-21.089	0.000E+00	0.000E+00
-21.088	0.000E+00	0.000E+00
-21.087	0.000E+00	0.000E+00
-21.086	0.000E+00	0.000E+00
-21.085	0.000E+00	0.000E+00
-21.084	0.000E+00	0.000E+00
-21.083	0.000E+00	0.000E+00
-21.082	0.000E+00	0.000E+00
-21.081	0.000E+00	0.000E+00
-21.080	0.000E+00	0.000E+00
-21.079	0.000E+00	0.000E+00
-21.078	0.000E+00	0.000E+00
-21.077	0.000E+00	0.000E+00
-21.076	0.000E+00	0.000E+00
-21.075	0.000E+00	0.000E+00
-21.074	1.205E+02	1.185E+02
-21.073	6.840E+01	6.720E+01
-21.072	6.340E+01	6.220E+01
-21.071	5.840E+01	5.740E+01
-21.070	5.340E+01	5.240E+01
-21.069	4.920E+01	4.840E+01
-21.068	4.620E+01	4.540E+01
-21.067	3.840E+01	3.780E+01
-21.066	3.760E+01	3.700E+01
-21.065	3.680E+01	3.620E+01
-21.064	3.600E+01	3.540E+01
-21.063	3.540E+01	3.480E+01
-21.062	3.460E+01	3.400E+01
-21.061	3.380E+01	3.320E+01
-21.060	3.300E+01	3.260E+01
-21.059	3.240E+01	3.180E+01
-21.058	3.240E+01	3.180E+01
-21.057	3.220E+01	3.160E+01
-21.056	3.180E+01	3.120E+01
-21.055	3.160E+01	3.100E+01
-21.054	3.120E+01	3.060E+01
-21.053	3.140E+01	3.100E+01
-21.052	3.340E+01	3.280E+01
-21.051	3.540E+01	3.480E+01
-21.050	3.740E+01	3.680E+01
-21.049	3.950E+01	3.880E+01
-21.048	4.160E+01	4.080E+01
-21.047	4.380E+01	4.320E+01
-21.046	4.080E+01	4.000E+01
-21.045	4.200E+01	4.140E+01
-21.044	4.340E+01	4.260E+01
-21.043	4.460E+01	4.380E+01
-21.042	4.620E+01	4.560E+01
-21.041	4.840E+01	4.760E+01
-21.040	5.040E+01	4.960E+01
-21.039	5.260E+01	5.160E+01
-21.038	5.460E+01	5.380E+01
-21.037	5.880E+01	5.780E+01
-21.036	6.360E+01	6.240E+01
-21.035	6.840E+01	6.720E+01
-21.034	7.300E+01	7.180E+01
-21.033	5.460E+01	5.360E+01
-21.032	3.990E+01	3.920E+01
-21.031	2.520E+01	2.480E+01
-21.030	1.840E+01	1.808E+01
-21.029	1.774E+01	1.744E+01
-21.028	1.724E+01	1.694E+01
-21.027	1.684E+01	1.656E+01
-21.026	1.644E+01	1.616E+01
-21.025	1.604E+01	1.578E+01
-21.024	1.564E+01	1.538E+01
-21.023	1.524E+01	1.498E+01
-21.022	1.484E+01	1.460E+01
-21.021	1.446E+01	1.420E+01
-21.020	1.406E+01	1.382E+01
-21.019	1.366E+01	1.342E+01
-21.018	1.326E+01	1.304E+01
-21.017	1.308E+01	1.286E+01
-21.016	1.336E+01	1.314E+01
-21.015	1.362E+01	1.340E+01
-21.014	1.398E+01	1.376E+01
-21.013	1.458E+01	1.434E+01
-21.012	1.444E+01	1.420E+01
-21.011	1.488E+01	1.462E+01
-21.010	1.532E+01	1.506E+01
-21.009	1.574E+01	1.548E+01
-21.008	1.618E+01	1.591E+01
-21.007	1.662E+01	1.634E+01
-21.006	1.706E+01	1.676E+01
-21.005	1.748E+01	1.720E+01
-21.004	1.794E+01	1.764E+01
-21.003	1.840E+01	1.809E+01
-21.002	1.886E+01	1.854E+01
-21.001	1.934E+01	1.900E+01
-21.000	1.980E+01	1.946E+01
-20.999	2.020E+01	1.992E+01
-20.998	2.080E+01	2.040E+01
-20.997	2.120E+01	2.080E+01
-20.996	2.160E+01	2.120E+01
-20.995	2.220E+01	2.180E+01
-20.994	2.260E+01	2.220E+01
-20.993	2.300E+01	2.260E+01
-20.992	2.360E+01	2.320E+01
-20.991	2.560E+01	2.520E+01
-20.990	2.580E+01	2.540E+01
-20.989	2.620E+01	2.580E+01
-20.988	2.680E+01	2.640E+01
-20.987	2.740E+01	2.700E+01
-20.986	2.800E+01	2.760E+01
-20.985	2.840E+01	2.800E+01
-20.984	2.880E+01	2.840E+01
-20.983	2.920E+01	2.880E+01
-20.982	2.960E+01	2.920E+01
-20.981	3.000E+01	2.940E+01
-20.980	3.040E+01	2.980E+01
-20.979	3.080E+01	3.020E+01
-20.978	3.120E+01	3.060E+01
-20.977	3.160E+01	3.100E+01
-20.976	3.180E+01	3.140E+01
-20.975	3.220E+01	3.180E+01
-20.974	3.280E+01	3.220E+01
-20.973	3.320E+01	3.260E+01
-20.972	3.360E+01	3.300E+01
-20.971	3.400E+01	3.340E+01
-20.970	3.570E+01	3.500E+01
-20.969	4.580E+01	4.500E+01
-20.968	5.600E+01	5.500E+01
-20.967	6.620E+01	6.500E+01
-20.966	7.640E+01	7.500E+01
-20.965	4.860E+01	4.780E+01
-20.964	4.580E+01	4.500E+01
-20.963	4.280E+01	4.220E+01
-20.962	4.000E+01	3.940E+01
-20.961	3.720E+01	3.660E+01
-20.960	3.440E+01	3.380E+01
-20.959	3.160E+01	3.100E+01
-20.958	2.940E+01	2.880E+01
-20.957	2.840E+01	2.780E+01
-20.956	2.740E+01	2.700E+01
-20.955	2.640E+01	2.600E+01
-20.954	2.540E+01	2.500E+01
-20.953	2.440E+01	2.400E+01
-20.952	2.780E+01	2.740E+01
-20.951	2.740E+01	2.700E+01
-20.950	2.700E+01	2.660E+01
-20.949	2.660E+01	2.600E+01
-20.948	2.600E+01	2.560E+01
-20.947	2.560E+01	2.520E+01
-20.946	2.500E+01	2.460E+01
-20.945	2.460E+01	2.420E+01
-20.944	2.420E+01	2.380E+01
-20.943	2.360E+01	2.320E+01
-20.942	1.290E+01	1.267E+01
-20.941	7.060E+00	6.940E+00
-20.940	7.100E+00	6.980E+00
-20.939	7.160E+00	7.040E+00
-20.938	7.220E+00	7.100E+00
-20.937	7.280E+00	7.160E+00
-20.936	7.340E+00	7.220E+00
-20.935	7.480E+00	7.360E+00
-20.934	7.620E+00	7.480E+00
-20.933	7.740E+00	7.620E+00
-20.932	7.880E+00	7.740E+00
-20.931	8.920E+00	8.770E+00
-20.930	1.194E+01	1.174E+01
-20.929	1.496E+01	1.471E+01
-20.928	1.798E+01	1.768E+01
-20.927	2.100E+01	2.060E+01
-20.926	2.400E+01	2.360E+01
-20.925	2.700E+01	2.660E+01
-20.924	3.000E+01	2.960E+01
-20.923	3.400E+01	3.340E+01
-20.922	4.660E+01	4.580E+01
-20.921	5.920E+01	5.820E+01
-20.920	7.180E+01	7.060E+01
-20.919	1.282E+02	1.260E+02
-20.918	1.272E+02	1.250E+02
-20.917	1.262E+02	1.240E+02
-20.916	1.271E+02	1.249E+02
-20.915	8.520E+01	8.370E+01
-20.914	6.740E+01	6.640E+01
-20.913	5.620E+01	5.520E+01
-20.912	4.480E+01	4.400E+01
-20.911	3.480E+01	3.420E+01
-20.910	2.440E+01	2.400E+01
-20.909	1.686E+01	1.656E+01
-20.908	1.635E+01	1.606E+01
-20.907	1.584E+01	1.558E+01
-20.906	1.534E+01	1.508E+01
-20.905	1.484E+01	1.458E+01
-20.904	1.434E+01	1.410E+01
-20.903	1.384E+01	1.360E+01
-20.902	1.334E+01	1.310E+01
-20.901	1.284E+01	1.262E+01
-20.900	1.233E+01	1.212E+01
-20.899	1.210E+01	1.190E+01
-20.898	1.216E+01	1.196E+01
-20.897	1.328E+01	1.304E+01
-20.896	1.438E+01	1.414E+01
-20.895	1.550E+01	1.523E+01
-20.894	2.130E+01	2.100E+01
-20.893	3.500E+01	3.440E+01
-20.892	3.820E+01	3.760E+01
-20.891	3.740E+01	3.680E+01
-20.890	3.880E+01	3.820E+01
-20.889	4.010E+01	3.940E+01
-20.888	4.140E+01	4.080E+01
-20.887	4.280E+01	4.200E+01
-20.886	4.220E+01	4.140E+01
-20.885	4.100E+01	4.020E+01
-20.884	3.980E+01	3.900E+01
-20.883	3.860E+01	3.780E+01
-20.882	3.720E+01	3.660E+01
-20.881	3.600E+01	3.540E+01
-20.880	3.480E+01	3.420E+01
-20.879	3.440E+01	3.380E+01
-20.878	3.420E+01	3.360E+01
-20.877	3.420E+01	3.360E+01
-20.876	3.400E+01	3.360E+01
-20.875	3.680E+01	3.600E+01
-20.874	3.540E+01	3.480E+01
-20.873	3.640E+01	3.580E+01
-20.872	3.760E+01	3.680E+01
-20.871	3.860E+01	3.780E+01
-20.870	3.960E+01	3.900E+01
-20.869	4.060E+01	4.000E+01
-20.868	4.160E+01	4.100E+01
-20.867	4.280E+01	4.200E+01
-20.866	4.400E+01	4.320E+01
-20.865	4.320E+01	4.240E+01
-20.864	3.700E+01	3.620E+01
-20.863	3.060E+01	3.020E+01
-20.862	2.500E+01	2.450E+01
-20.861	2.440E+01	2.400E+01
-20.860	2.420E+01	2.380E+01
-20.859	2.380E+01	2.340E+01
-20.858	2.360E+01	2.320E+01
-20.857	2.320E+01	2.280E+01
-20.856	2.300E+01	2.260E+01
-20.855	2.280E+01	2.240E+01
-20.854	2.240E+01	2.200E+01
-20.853	2.220E+01	2.180E+01
-20.852	2.200E+01	2.160E+01
-20.851	2.160E+01	2.120E+01
-20.850	2.140E+01	2.100E+01
-20.849	2.100E+01	2.080E+01
-20.848	2.080E+01	2.040E+01
-20.847	2.060E+01	2.020E+01
-20.846	2.040E+01	1.996E+01
-20.845	2.020E+01	1.982E+01
-20.844	2.000E+01	1.968E+01
-20.843	1.988E+01	1.952E+01
-20.842	1.972E+01	1.938E+01
-20.841	1.958E+01	1.924E+01
-20.840	2.060E+01	2.020E+01
-20.839	2.400E+01	2.360E+01
-20.838	2.740E+01	2.700E+01
-20.837	3.400E+01	3.340E+01
-20.836	4.140E+01	4.060E+01
-20.835	4.630E+01	4.540E+01
-20.834	5.000E+01	4.900E+01
-20.833	4.960E+01	4.880E+01
-20.832	4.940E+01	4.860E+01
-20.831	4.920E+01	4.840E+01
-20.830	4.900E+01	4.800E+01
-20.829	3.840E+01	3.760E+01
-20.828	3.860E+01	3.800E+01
-20.827	3.800E+01	3.720E+01
-20.826	3.700E+01	3.640E+01
-20.825	3.620E+01	3.540E+01
-20.824	3.940E+01	3.860E+01
-20.823	3.750E+01	3.680E+01
-20.822	3.580E+01	3.520E+01
-20.821	3.420E+01	3.360E+01
-20.820	3.280E+01	3.220E+01
-20.819	3.120E+01	3.080E+01
-20.818	2.980E+01	2.920E+01
-20.817	2.840E+01	2.780E+01
-20.816	2.680E+01	2.640E+01
-20.815	2.580E+01	2.540E+01
-20.814	2.540E+01	2.500E+01
-20.813	2.520E+01	2.480E+01
-20.812	3.240E+01	3.180E+01
-20.811	3.240E+01	3.180E+01
-20.810	3.240E+01	3.180E+01
-20.809	3.260E+01	3.200E+01
-20.808	3.300E+01	3.240E+01
-20.807	3.320E+01	3.260E+01
-20.806	3.360E+01	3.300E+01
-20.805	3.400E+01	3.340E+01
-20.804	3.420E+01	3.360E+01
-20.803	3.460E+01	3.400E+01
-20.802	3.500E+01	3.440E+01
-20.801	3.520E+01	3.460E+01
-20.800	3.560E+01	3.500E+01
-20.799	2.880E+01	2.820E+01
-20.798	2.880E+01	2.820E+01
-20.797	2.880E+01	2.840E+01
-20.796	2.880E+01	2.840E+01
-20.795	2.900E+01	2.840E+01
-20.794	2.900E+01	2.840E+01
-20.793	2.900E+01	2.860E+01
-20.792	2.920E+01	2.860E+01
-20.791	2.940E+01	2.880E+01
-20.790	2.400E+01	2.340E+01
-20.789	2.200E+01	2.160E+01
-20.788	1.998E+01	1.964E+01
-20.787	1.802E+01	1.770E+01
-20.786	1.606E+01	1.578E+01
-20.785	1.408E+01	1.384E+01
-20.784	1.212E+01	1.192E+01
-20.783	1.042E+01	1.024E+01
-20.782	9.700E+00	9.540E+00
-20.781	9.860E+00	9.700E+00
-20.780	1.002E+01	9.840E+00
-20.779	1.018E+01	1.000E+01
-20.778	1.034E+01	1.016E+01
-20.777	1.050E+01	1.032E+01
-20.776	5.360E+01	5.270E+01
-20.775	3.720E+01	3.660E+01
-20.774	3.100E+01	3.040E+01
-20.773	2.940E+01	2.900E+01
-20.772	2.800E+01	2.760E+01
-20.771	2.780E+01	2.740E+01
-20.770	2.860E+01	2.800E+01
-20.769	2.920E+01	2.860E+01
-20.768	2.980E+01	2.920E+01
-20.767	3.040E+01	3.000E+01
-20.766	3.120E+01	3.060E+01
-20.765	3.180E+01	3.120E+01
-20.764	3.260E+01	3.200E+01
-20.763	3.340E+01	3.280E+01
-20.762	3.420E+01	3.360E+01
-20.761	3.500E+01	3.440E+01
-20.760	3.580E+01	3.520E+01
-20.759	2.780E+01	2.740E+01
-20.758	2.760E+01	2.720E+01
-20.757	2.740E+01	2.680E+01
-20.756	2.700E+01	2.660E+01
-20.755	2.680E+01	2.620E+01
-20.754	2.640E+01	2.600E+01
-20.753	2.620E+01	2.580E+01
-20.752	2.600E+01	2.540E+01
-20.751	2.560E+01	2.520E+01
-20.750	2.540E+01	2.500E+01
-20.749	2.520E+01	2.460E+01
-20.748	2.480E+01	2.440E+01
-20.747	2.460E+01	2.420E+01
-20.746	2.160E+01	2.120E+01
-20.745	2.120E+01	2.080E+01
-20.744	2.080E+01	2.040E+01
-20.743	2.060E+01	2.020E+01
-20.742	2.680E+01	2.620E+01
-20.741	2.820E+01	2.780E+01
-20.740	3.080E+01	3.020E+01
-20.739	3.320E+01	3.260E+01
-20.738	3.560E+01	3.500E+01
-20.737	3.820E+01	3.760E+01
-20.736	4.080E+01	4.000E+01
-20.735	4.320E+01	4.260E+01
-20.734	6.640E+01	6.520E+01
-20.733	3.080E+01	3.040E+01
-20.732	3.080E+01	3.020E+01
-20.731	3.080E+01	3.020E+01
-20.730	3.080E+01	3.020E+01
-20.729	3.060E+01	3.020E+01
-20.728	3.060E+01	3.000E+01
-20.727	3.060E+01	3.000E+01
-20.726	3.040E+01	2.990E+01
-20.725	3.040E+01	2.980E+01
-20.724	3.020E+01	2.980E+01
-20.723	3.020E+01	2.960E+01
-20.722	3.000E+01	2.960E+01
-20.721	3.000E+01	2.940E+01
-20.720	2.980E+01	2.940E+01
-20.719	2.980E+01	2.920E+01
-20.718	2.960E+01	2.920E+01
-20.717	2.960E+01	2.900E+01
-20.716	2.960E+01	2.900E+01
-20.715	2.940E+01	2.880E+01
-20.714	2.940E+01	2.900E+01
-20.713	2.980E+01	2.920E+01
-20.712	3.020E+01	2.960E+01
-20.711	3.040E+01	3.000E+01
-20.710	3.080E+01	3.040E+01
-20.709	3.120E+01	3.060E+01
-20.708	3.160E+01	3.100E+01
-20.707	3.200E+01	3.140E+01
-20.706	3.240E+01	3.180E+01
-20.705	3.280E+01	3.220E+01
-20.704	3.300E+01	3.240E+01
-20.703	3.340E+01	3.290E+01
-20.702	3.400E+01	3.340E+01
-20.701	3.940E+01	3.880E+01
-20.700	3.920E+01	3.860E+01
-20.699	3.900E+01	3.840E+01
-20.698	3.900E+01	3.820E+01
-20.697	3.880E+01	3.800E+01
-20.696	3.860E+01	3.780E+01
-20.695	3.840E+01	3.780E+01
-20.694	3.820E+01	3.760E+01
-20.693	3.800E+01	3.740E+01
-20.692	3.780E+01	3.720E+01
-20.691	3.780E+01	3.700E+01
-20.690	3.860E+01	3.780E+01
-20.689	4.180E+01	4.100E+01
-20.688	4.140E+01	4.080E+01
-20.687	4.120E+01	4.040E+01
-20.686	4.100E+01	4.020E+01
-20.685	4.060E+01	4.000E+01
-20.684	4.040E+01	3.980E+01
-20.683	4.020E+01	3.960E+01
-20.682	4.000E+01	3.920E+01
-20.681	3.980E+01	3.900E+01
-20.680	3.960E+01	3.880E+01
-20.679	3.920E+01	3.860E+01
-20.678	3.880E+01	3.800E+01
-20.677	3.820E+01	3.760E+01
-20.676	3.720E+01	3.660E+01
-20.675	3.620E+01	3.560E+01
-20.674	3.520E+01	3.440E+01
-20.673	3.410E+01	3.340E+01
-20.672	3.320E+01	3.260E+01
-20.671	3.280E+01	3.220E+01
-20.670	3.240E+01	3.180E+01